
                                 *****************
                                 * O   R   C   A *
                                 *****************

                                            #,                                       
                                            ###                                      
                                            ####                                     
                                            #####                                    
                                            ######                                   
                                           ########,                                 
                                     ,,################,,,,,                         
                               ,,#################################,,                 
                          ,,##########################################,,             
                       ,#########################################, ''#####,          
                    ,#############################################,,   '####,        
                  ,##################################################,,,,####,       
                ,###########''''           ''''###############################       
              ,#####''   ,,,,##########,,,,          '''####'''          '####       
            ,##' ,,,,###########################,,,                        '##       
           ' ,,###''''                  '''############,,,                           
         ,,##''                                '''############,,,,        ,,,,,,###''
      ,#''                                            '''#######################'''  
     '                                                          ''''####''''         
             ,#######,   #######,   ,#######,      ##                                
            ,#'     '#,  ##    ##  ,#'     '#,    #''#        ,####,   ,####,        
            ##       ##  ##   ,#'  ##            #'  '#       #'       #'  '#        
            ##       ##  #######   ##           ,######,      #####,   #    #        
            '#,     ,#'  ##    ##  '#,     ,#' ,#      #,     #,   #   #,  ,#        
             '#######'   ##     ##  '#######'  #'      '#     '####' # '####'        



                #########################################################
                #                        -***-                          #
                #          Department of theory and spectroscopy        #
                #                                                       #
                #                      Frank Neese                      #
                #                                                       #
                #     Directorship, Architecture, Infrastructure        #
                #                    SHARK, DRIVERS                     #
                #        Core code/Algorithms in most modules           #
                #                                                       #
                #        Max Planck Institute fuer Kohlenforschung      #
                #                Kaiser Wilhelm Platz 1                 #
                #                 D-45470 Muelheim/Ruhr                 #
                #                      Germany                          #
                #                                                       #
                #                  All rights reserved                  #
                #                        -***-                          #
                #########################################################


                         Program Version 6.0.0  -   RELEASE   -


 With contributions from (in alphabetic order):
   Daniel Aravena         : Magnetic Suceptibility
   Michael Atanasov       : Ab Initio Ligand Field Theory (pilot matlab implementation)
   Alexander A. Auer      : GIAO ZORA, VPT2 properties, NMR spectrum
   Ute Becker             : All parallelization in ORCA, NUMFREQ, NUMCALC
   Giovanni Bistoni       : ED, misc. LED, open-shell LED, HFLD
   Martin Brehm           : Molecular dynamics
   Dmytro Bykov           : pre 5.0 version of the SCF Hessian
   Marcos Casanova-Páez   : Triplet and SCS-CIS(D). UHF-(DLPNO)-IP/EA/STEOM-CCSD. UHF-CVS-IP/STEOM-CCSD
   Vijay G. Chilkuri      : MRCI spin determinant printing, contributions to CSF-ICE
   Pauline Colinet        : FMM embedding
   Dipayan Datta          : RHF DLPNO-CCSD density
   Achintya Kumar Dutta   : EOM-CC, STEOM-CC
   Nicolas Foglia         : Exact transition moments, OPA infrastructure, MCD improvements
   Dmitry Ganyushin       : Spin-Orbit,Spin-Spin,Magnetic field MRCI
   Miquel Garcia          : C-PCM and meta-GGA Hessian, CCSD/C-PCM, Gaussian charge scheme
   Tiago L. C. Gouveia    : GS-ROHF, GS-ROCIS
   Yang Guo               : DLPNO-NEVPT2, F12-NEVPT2, CIM, IAO-localization
   Andreas Hansen         : Spin unrestricted coupled pair/coupled cluster methods
   Ingolf Harden          : AUTO-CI MPn and infrastructure 
   Benjamin Helmich-Paris : MC-RPA, TRAH-(SCF,CASSCF), AVAS, COSX integrals, SCF dyn. polar.
   Lee Huntington         : MR-EOM, pCC
   Robert Izsak           : Overlap fitted RIJCOSX, COSX-SCS-MP3, EOM
   Riya Kayal             : Wick's Theorem for AUTO-CI, AUTO-CI UHF-CCSDT
   Emily Kempfer          : AUTO-CI, RHF CISDT and CCSDT
   Christian Kollmar      : KDIIS, OOCD, Brueckner-CCSD(T), CCSD density, CASPT2, CASPT2-K, improved NEVPT2
   Axel Koslowski         : Symmetry handling
   Simone Kossmann        : Meta GGA functionals, TD-DFT gradient, OOMP2, (MP2 Hessian; deprecated post 5.0)
   Lucas Lang             : DCDCAS
   Marvin Lechner         : AUTO-CI (C++ implementation), FIC-MRCC
   Spencer Leger          : CASSCF response
   Dagmar Lenk            : GEPOL surface, SMD, ORCA-2-JSON
   Dimitrios Liakos       : Extrapolation schemes; Compound Job, initial MDCI parallelization
   Dimitrios Manganas     : Further ROCIS development; embedding schemes. LFT, Crystal Embedding
   Dimitrios Pantazis     : SARC Basis sets
   Anastasios Papadopoulos: AUTO-CI, single reference methods and gradients
   Taras Petrenko         : pre 6.0 DFT Hessian and TD-DFT gradient, (ASA, deprecated), ECA, 1-Electron XAS/XES, NRVS
   Peter Pinski           : DLPNO-MP2, DLPNO-MP2 Gradient
   Christoph Reimann      : Effective Core Potentials
   Marius Retegan         : Local ZFS, SOC
   Christoph Riplinger    : Optimizer, TS searches, QM/MM, DLPNO-CCSD(T), (RO)-DLPNO pert. Triples
   Michael Roemelt        : Original ROCIS implementation
   Masaaki Saitow         : Open-shell DLPNO-CCSD energy and density
   Barbara Sandhoefer     : DKH picture change effects
   Kantharuban Sivalingam : CASSCF convergence/infrastructure, NEVPT2 and variants, FIC-MRCI
   Bernardo de Souza      : ESD, SOC TD-DFT
   Georgi Stoychev        : AutoAux, RI-MP2 NMR, DLPNO-MP2 response, X2C
   Van Anh Tran           : RI-MP2 g-tensors
   Willem Van den Heuvel  : Paramagnetic NMR
   Zikuan Wang            : NOTCH, Electric field optimization 
   Frank Wennmohs         : Technical directorship and infrastructure
   Hang Xu                : AUTO-CI-Response properties 


 We gratefully acknowledge several colleagues who have allowed us to
 interface, adapt or use parts of their codes:
   Stefan Grimme, W. Hujo, H. Kruse, P. Pracht,  : VdW corrections, initial TS optimization,
                  C. Bannwarth, S. Ehlert,         DFT functionals, gCP, sTDA/sTD-DF
                  L. Wittmann, M. Mueller
   Ed Valeev, F. Pavosevic, A. Kumar             : LibInt (2-el integral package), F12 methods
   Garnet Chan, S. Sharma, J. Yang, R. Olivares  : DMRG
   Ulf Ekstrom                                   : XCFun DFT Library
   Mihaly Kallay                                 : mrcc  (arbitrary order and MRCC methods)
   Frank Weinhold                                : gennbo (NPA and NBO analysis)
   Simon Mueller                                 : openCOSMO-RS
   Christopher J. Cramer and Donald G. Truhlar   : smd solvation model
   Lars Goerigk                                  : TD-DFT with DH, B97 family of functionals
   V. Asgeirsson, H. Jonsson                     : NEB implementation
   FAccTs GmbH                                   : IRC, NEB, NEB-TS, DLPNO-Multilevel, CI-OPT
                                                   MM, QMMM, 2- and 3-layer-ONIOM, Crystal-QMMM,
                                                   LR-CPCM, SF, NACMEs, symmetry and pop. for TD-DFT,
                                                   nearIR, NL-DFT gradient (VV10), updates on ESD,
                                                   ML-optimized integration grids, MBIS, APM,
                                                   GOAT, DOCKER, SOLVATOR, interface openCOSMO-RS
   S Lehtola, MJT Oliveira, MAL Marques          : LibXC Library
   Liviu Ungur et al                             : ANISO software


 Your calculation uses the libint2 library for the computation of 2-el integrals
 For citations please refer to: http://libint.valeyev.net

 Your ORCA version has been built with support for libXC version: 6.2.2
 For citations please refer to: https://libxc.gitlab.io

 This ORCA versions uses:
   CBLAS   interface :  Fast vector & matrix operations
   LAPACKE interface :  Fast linear algebra routines
   Shared memory     :  Shared parallel matrices


Warning: RI is on but no J-basis has been assigned. Assigning Def2/J (nothing to worry about!)
================================================================================

----- Orbital basis set information -----
Your calculation utilizes the basis: def2-TZVP
   F. Weigend and R. Ahlrichs, Phys. Chem. Chem. Phys. 7, 3297 (2005).

----- AuxJ basis set information -----
Your calculation utilizes the auxiliary basis: def2/J
   F. Weigend, Phys. Chem. Chem. Phys. 8, 1057 (2006).

================================================================================
                                        WARNINGS
                       Please study these warnings very carefully!
================================================================================


WARNING: Geometry Optimization
  ===> : Switching off AutoStart
         For restart on a previous wavefunction, please use MOREAD

================================================================================
                                       INPUT FILE
================================================================================
NAME = Triclosan\Triclosan_B3LYP_def2-TZVP\Triclosan_B3LYP_def2-TZVP.orcainp
|  1> # ORCA input file
|  2> # 
|  3> !B3LYP def2-TZVP Opt CPCM(WATER)
|  4> * xyz 0 1
|  5>    C       -0.49838         1.45672         0.09896
|  6>    C        0.83636         1.86187         0.13987
|  7>    C        1.85850         0.90964         0.07692
|  8>    C        1.52705        -0.44553         0.10327
|  9>    C        0.19399        -0.85911         0.06588
| 10>    C       -0.81311         0.09845         0.04328
| 11>   Cl       -2.45804        -0.38995        -0.04430
| 12>    O        2.48623        -1.41804         0.15924
| 13>    O        3.19540         1.23915         0.00408
| 14>    C        3.55840         2.36555        -0.71342
| 15>    C        4.59924         3.16189        -0.21840
| 16>    C        4.97545         4.33057        -0.88996
| 17>    C        4.31222         4.69779        -2.05616
| 18>    C        3.30213         3.89395        -2.58058
| 19>    C        2.94419         2.71337        -1.92599
| 20>   Cl        4.74503         6.15332        -2.86475
| 21>   Cl        5.43890         2.74189         1.23085
| 22>    H       -1.28677         2.20447         0.09898
| 23>    H        1.06264         2.92223         0.19335
| 24>    H       -0.04081        -1.92109         0.05235
| 25>    H        3.32941        -0.97731         0.37369
| 26>    H        5.77651         4.95189        -0.49678
| 27>    H        2.78688         4.18033        -3.49530
| 28>    H        2.16802         2.08687        -2.36091
| 29> *
| 30> 
| 31>                          ****END OF INPUT****
================================================================================

                       *****************************
                       * Geometry Optimization Run *
                       *****************************

Geometry optimization settings:
Update method            Update   .... BFGS
Choice of coordinates    CoordSys .... (2022) Redundant Internals
Initial Hessian          InHess   .... Almloef's Model
Max. no of cycles        MaxIter  .... 72

Convergence Tolerances:
Energy Change            TolE     ....  5.0000e-06 Eh
Max. Gradient            TolMAXG  ....  3.0000e-04 Eh/bohr
RMS Gradient             TolRMSG  ....  1.0000e-04 Eh/bohr
Max. Displacement        TolMAXD  ....  4.0000e-03 bohr
RMS Displacement         TolRMSD  ....  2.0000e-03 bohr
Strict Convergence                .... False

------------------------------------------------------------------------------
                        ORCA OPTIMIZATION COORDINATE SETUP
------------------------------------------------------------------------------

The optimization will be done in redundant internal coordinates (2022)
Making redundant internal coordinates   ...  (2022 redundants) done
Evaluating the initial hessian          ...  (Almloef) done
Evaluating the coordinates              ...  done
Calculating the B-matrix                .... done
Calculating the G-matrix                .... done
Diagonalizing the G-matrix              .... done
Small eigenvalue found = 5.189e-03
Small eigenvalue found = 1.845e-02
Small eigenvalue found = 2.339e-02
The first mode is                       ....   52
The number of degrees of freedom        ....   66

    -----------------------------------------------------------------
                    Redundant Internal Coordinates


    -----------------------------------------------------------------
         Definition                    Initial Value    Approx d2E/dq
    -----------------------------------------------------------------
      1. B(C   1,C   0)                  1.3955         0.612355   
      2. B(C   2,C   1)                  1.3984         0.605849   
      3. B(C   3,C   2)                  1.3954         0.612606   
      4. B(C   4,C   3)                  1.3962         0.610629   
      5. B(C   5,C   4)                  1.3898         0.625141   
      6. B(C   5,C   0)                  1.3954         0.612596   
      7. B(Cl  6,C   5)                  1.7181         0.419963   
      8. B(O   7,C   3)                  1.3671         0.608733   
      9. B(O   8,C   2)                  1.3788         0.583028   
     10. B(C   9,O   8)                  1.3840         0.572147   
     11. B(C  10,C   9)                  1.4009         0.600249   
     12. B(C  11,C  10)                  1.3994         0.603574   
     13. B(C  12,C  11)                  1.3910         0.622616   
     14. B(C  13,C  12)                  1.3934         0.617128   
     15. B(C  14,C   9)                  1.4031         0.595543   
     16. B(C  14,C  13)                  1.3966         0.609921   
     17. B(Cl 15,C  12)                  1.7204         0.416517   
     18. B(Cl 16,C  10)                  1.7268         0.406846   
     19. B(H  17,C   0)                  1.0866         0.364633   
     20. B(H  18,C   1)                  1.0856         0.366031   
     21. B(H  19,C   4)                  1.0877         0.363141   
     22. B(H  20,O   8)                  2.2511         0.004531   
     23. B(H  20,O   7)                  0.9753         0.491561   
     24. B(H  21,C  11)                  1.0873         0.363625   
     25. B(H  22,C  13)                  1.0882         0.362471   
     26. B(H  23,C  14)                  1.0882         0.362539   
     27. A(C   1,C   0,H  17)          119.6162         0.352915   
     28. A(C   1,C   0,C   5)          119.9682         0.432164   
     29. A(C   5,C   0,H  17)          120.4118         0.352938   
     30. A(C   0,C   1,H  18)          118.9740         0.353144   
     31. A(C   2,C   1,H  18)          120.9976         0.352506   
     32. A(C   0,C   1,C   2)          120.0073         0.431305   
     33. A(C   1,C   2,C   3)          119.1344         0.431337   
     34. A(C   1,C   2,O   8)          123.2546         0.424738   
     35. A(C   3,C   2,O   8)          117.6070         0.425582   
     36. A(C   2,C   3,C   4)          120.9279         0.431946   
     37. A(C   4,C   3,O   7)          117.4034         0.428636   
     38. A(C   2,C   3,O   7)          121.6678         0.428885   
     39. A(C   3,C   4,C   5)          119.2209         0.433522   
     40. A(C   5,C   4,H  19)          121.0675         0.353906   
     41. A(C   3,C   4,H  19)          119.7115         0.352502   
     42. A(C   0,C   5,Cl  6)          119.6487         0.422262   
     43. A(C   0,C   5,C   4)          120.4351         0.433773   
     44. A(C   4,C   5,Cl  6)          119.9152         0.423795   
     45. A(C   3,O   7,H  20)          107.1047         0.365416   
     46. A(C   2,O   8,C   9)          118.4377         0.417690   
     47. A(O   8,C   9,C  10)          118.3161         0.422608   
     48. A(C  10,C   9,C  14)          119.3218         0.428441   
     49. A(O   8,C   9,C  14)          122.3438         0.422014   
     50. A(C   9,C  10,C  11)          120.3239         0.429471   
     51. A(C  11,C  10,Cl 16)          118.3700         0.418768   
     52. A(C   9,C  10,Cl 16)          121.3041         0.418356   
     53. A(C  12,C  11,H  21)          120.2377         0.353744   
     54. A(C  10,C  11,H  21)          120.1142         0.351889   
     55. A(C  10,C  11,C  12)          119.6461         0.432302   
     56. A(C  13,C  12,Cl 15)          119.5757         0.422197   
     57. A(C  11,C  12,Cl 15)          119.8326         0.422865   
     58. A(C  11,C  12,C  13)          120.5911         0.434032   
     59. A(C  12,C  13,C  14)          119.8068         0.432427   
     60. A(C  14,C  13,H  22)          119.6764         0.352323   
     61. A(C  12,C  13,H  22)          120.5164         0.353024   
     62. A(C   9,C  14,C  13)          120.1619         0.429671   
     63. A(C  13,C  14,H  23)          118.8279         0.352334   
     64. A(C   9,C  14,H  23)          120.9938         0.350916   
     65. D(C   2,C   1,C   0,H  17)   -177.0031         0.025909   
     66. D(H  18,C   1,C   0,H  17)      1.3416         0.025909   
     67. D(C   2,C   1,C   0,C   5)      2.2818         0.025909   
     68. D(H  18,C   1,C   0,C   5)   -179.3735         0.025909   
     69. D(C   3,C   2,C   1,H  18)    175.5746         0.025331   
     70. D(O   8,C   2,C   1,H  18)     -3.6759         0.025331   
     71. D(O   8,C   2,C   1,C   0)    174.6347         0.025331   
     72. D(C   3,C   2,C   1,C   0)     -6.1148         0.025331   
     73. D(O   7,C   3,C   2,O   8)      4.9411         0.025932   
     74. D(O   7,C   3,C   2,C   1)   -174.3516         0.025932   
     75. D(C   4,C   3,C   2,O   8)   -174.7104         0.025932   
     76. D(C   4,C   3,C   2,C   1)      5.9969         0.025932   
     77. D(H  19,C   4,C   3,C   2)    177.8731         0.025755   
     78. D(C   5,C   4,C   3,O   7)    178.3616         0.025755   
     79. D(C   5,C   4,C   3,C   2)     -1.9726         0.025755   
     80. D(H  19,C   4,C   3,O   7)     -1.7928         0.025755   
     81. D(Cl  6,C   5,C   4,H  19)     -1.4413         0.027070   
     82. D(C   0,C   5,C   4,H  19)    178.1925         0.027070   
     83. D(C   0,C   5,C   4,C   3)     -1.9640         0.027070   
     84. D(Cl  6,C   5,C   0,H  17)      0.7193         0.025931   
     85. D(Cl  6,C   5,C   0,C   1)   -178.5598         0.025931   
     86. D(Cl  6,C   5,C   4,C   3)    178.4022         0.027070   
     87. D(C   4,C   5,C   0,H  17)   -178.9155         0.025931   
     88. D(C   4,C   5,C   0,C   1)      1.8053         0.025931   
     89. D(H  20,O   7,C   3,C   4)   -167.9419         0.027116   
     90. D(H  20,O   7,C   3,C   2)     12.3948         0.027116   
     91. D(C   9,O   8,C   2,C   3)    145.4603         0.027282   
     92. D(C   9,O   8,C   2,C   1)    -35.2785         0.027282   
     93. D(C  14,C   9,O   8,C   2)    -39.3694         0.026210   
     94. D(C  10,C   9,O   8,C   2)    142.2004         0.026210   
     95. D(C  11,C  10,C   9,O   8)   -178.1978         0.024839   
     96. D(Cl 16,C  10,C   9,C  14)   -177.1840         0.024839   
     97. D(Cl 16,C  10,C   9,O   8)      1.2949         0.024839   
     98. D(C  11,C  10,C   9,C  14)      3.3233         0.024839   
     99. D(H  21,C  11,C  10,Cl 16)     -0.1788         0.025130   
    100. D(H  21,C  11,C  10,C   9)    179.3286         0.025130   
    101. D(C  12,C  11,C  10,Cl 16)   -179.6682         0.025130   
    102. D(C  12,C  11,C  10,C   9)     -0.1608         0.025130   
    103. D(Cl 15,C  12,C  11,H  21)     -0.9707         0.026838   
    104. D(Cl 15,C  12,C  11,C  10)    178.5182         0.026838   
    105. D(C  13,C  12,C  11,H  21)    178.7584         0.026838   
    106. D(C  13,C  12,C  11,C  10)     -1.7528         0.026838   
    107. D(H  22,C  13,C  12,Cl 15)     -0.0147         0.026339   
    108. D(H  22,C  13,C  12,C  11)   -179.7444         0.026339   
    109. D(C  14,C  13,C  12,Cl 15)   -179.8112         0.026339   
    110. D(C  14,C  13,C  12,C  11)      0.4591         0.026339   
    111. D(H  23,C  14,C  13,H  22)      1.4971         0.025692   
    112. D(H  23,C  14,C  13,C  12)   -178.7046         0.025692   
    113. D(C   9,C  14,C  13,H  22)   -177.0456         0.025692   
    114. D(C   9,C  14,C  13,C  12)      2.7526         0.025692   
    115. D(H  23,C  14,C   9,C  10)    176.8704         0.024431   
    116. D(H  23,C  14,C   9,O   8)     -1.5445         0.024431   
    117. D(C  13,C  14,C   9,C  10)     -4.6189         0.024431   
    118. D(C  13,C  14,C   9,O   8)    176.9661         0.024431   
    -----------------------------------------------------------------

Number of atoms                         .... 24
Number of degrees of freedom            .... 118


         *************************************************************
         *                GEOMETRY OPTIMIZATION CYCLE   1            *
         *************************************************************
---------------------------------
CARTESIAN COORDINATES (ANGSTROEM)
---------------------------------
  C     -0.498380    1.456720    0.098960
  C      0.836360    1.861870    0.139870
  C      1.858500    0.909640    0.076920
  C      1.527050   -0.445530    0.103270
  C      0.193990   -0.859110    0.065880
  C     -0.813110    0.098450    0.043280
  Cl    -2.458040   -0.389950   -0.044300
  O      2.486230   -1.418040    0.159240
  O      3.195400    1.239150    0.004080
  C      3.558400    2.365550   -0.713420
  C      4.599240    3.161890   -0.218400
  C      4.975450    4.330570   -0.889960
  C      4.312220    4.697790   -2.056160
  C      3.302130    3.893950   -2.580580
  C      2.944190    2.713370   -1.925990
  Cl     4.745030    6.153320   -2.864750
  Cl     5.438900    2.741890    1.230850
  H     -1.286770    2.204470    0.098980
  H      1.062640    2.922230    0.193350
  H     -0.040810   -1.921090    0.052350
  H      3.329410   -0.977310    0.373690
  H      5.776510    4.951890   -0.496780
  H      2.786880    4.180330   -3.495300
  H      2.168020    2.086870   -2.360910

----------------------------
CARTESIAN COORDINATES (A.U.)
----------------------------
  NO LB      ZA    FRAG     MASS         X           Y           Z
   0 C     6.0000    0    12.011   -0.941802    2.752802    0.187007
   1 C     6.0000    0    12.011    1.580491    3.518424    0.264316
   2 C     6.0000    0    12.011    3.512056    1.718970    0.145358
   3 C     6.0000    0    12.011    2.885706   -0.841930    0.195152
   4 C     6.0000    0    12.011    0.366588   -1.623483    0.124495
   5 C     6.0000    0    12.011   -1.536555    0.186044    0.081787
   6 Cl   17.0000    0    35.453   -4.645022   -0.736899   -0.083715
   7 O     8.0000    0    15.999    4.698294   -2.679707    0.300920
   8 O     8.0000    0    15.999    6.038431    2.341654    0.007710
   9 C     6.0000    0    12.011    6.724401    4.470242   -1.348168
  10 C     6.0000    0    12.011    8.691304    5.975106   -0.412716
  11 C     6.0000    0    12.011    9.402238    8.183591   -1.681781
  12 C     6.0000    0    12.011    8.148915    8.877537   -3.885579
  13 C     6.0000    0    12.011    6.240121    7.358499   -4.876589
  14 C     6.0000    0    12.011    5.563713    5.127526   -3.639594
  15 Cl   17.0000    0    35.453    8.966807   11.628090   -5.413593
  16 Cl   17.0000    0    35.453   10.278031    5.181421    2.325969
  17 H     1.0000    0     1.008   -2.431643    4.165845    0.187045
  18 H     1.0000    0     1.008    2.008099    5.522214    0.365379
  19 H     1.0000    0     1.008   -0.077120   -3.630334    0.098927
  20 H     1.0000    0     1.008    6.291673   -1.846848    0.706172
  21 H     1.0000    0     1.008   10.916022    9.357716   -0.938778
  22 H     1.0000    0     1.008    5.266440    7.899679   -6.605160
  23 H     1.0000    0     1.008    4.096964    3.943613   -4.461473

--------------------------------
INTERNAL COORDINATES (ANGSTROEM)
--------------------------------
 C      0   0   0     0.000000000000     0.00000000     0.00000000
 C      1   0   0     1.395475194405     0.00000000     0.00000000
 C      2   1   0     1.398382942902   120.00730714     0.00000000
 C      3   2   1     1.395363448676   119.13439743   353.88521152
 C      4   3   2     1.396243314075   120.92787852     5.99690044
 C      5   4   3     1.389849748570   119.22087215   358.02744876
 Cl     6   5   4     1.718138388285   119.91522697   178.40217544
 O      4   3   2     1.367089833698   121.66780929   185.64837581
 O      3   2   1     1.378834332217   123.25460873   174.63471367
 C      9   3   2     1.383962503105   118.43773013   324.72150892
 C     10   9   3     1.400910454526   118.31610011   142.20041341
 C     11  10   9     1.399406924415   120.32394736   181.80216421
 C     12  11  10     1.390951832847   119.64607025   359.83916149
 C     13  12  11     1.393361722633   120.59113197   358.24719922
 C     14  13  12     1.396559432355   119.80682487     0.45907096
 Cl    13  12  11     1.720380732600   119.83263710   178.51818599
 Cl    11  10   9     1.726775746326   121.30414926     1.29488420
 H      1   2   3     1.086595074073   119.61615663   182.99686979
 H      2   1   3     1.085553351245   118.97395465   178.34468767
 H      5   4   3     1.087711184690   119.71147944   177.87310101
 H      8   4   3     0.975286751576   107.10469875    12.39482959
 H     12  11  10     1.087348232352   120.11423103   179.32864385
 H     14  13  12     1.088213556844   120.51644043   180.25560822
 H     15  14  13     1.088162453543   118.82789416   181.29536685

---------------------------
INTERNAL COORDINATES (A.U.)
---------------------------
 C      0   0   0     0.000000000000     0.00000000     0.00000000
 C      1   0   0     2.637065944106     0.00000000     0.00000000
 C      2   1   0     2.642560792432   120.00730714     0.00000000
 C      3   2   1     2.636854775281   119.13439743   353.88521152
 C      4   3   2     2.638517479921   120.92787852     5.99690044
 C      5   4   3     2.626435392097   119.22087215   358.02744876
 Cl     6   5   4     3.246811014036   119.91522697   178.40217544
 O      4   3   2     2.583425386157   121.66780929   185.64837581
 O      3   2   1     2.605619271938   123.25460873   174.63471367
 C      9   3   2     2.615310110484   118.43773013   324.72150892
 C     10   9   3     2.647337097201   118.31610011   142.20041341
 C     11  10   9     2.644495837057   120.32394736   181.80216421
 C     12  11  10     2.628518029556   119.64607025   359.83916149
 C     13  12  11     2.633072061266   120.59113197   358.24719922
 C     14  13  12     2.639114856896   119.80682487     0.45907096
 Cl    13  12  11     3.251048430688   119.83263710   178.51818599
 Cl    11  10   9     3.263133255254   121.30414926     1.29488420
 H      1   2   3     2.053367108466   119.61615663   182.99686979
 H      2   1   3     2.051398537614   118.97395465   178.34468767
 H      5   4   3     2.055476251867   119.71147944   177.87310101
 H      8   4   3     1.843024862521   107.10469875    12.39482959
 H     12  11  10     2.054790371350   120.11423103   179.32864385
 H     14  13  12     2.056425597656   120.51644043   180.25560822
 H     15  14  13     2.056329026411   118.82789416   181.29536685

---------------------
BASIS SET INFORMATION
---------------------
There are 4 groups of distinct atoms

 Group   1 Type C   : 11s6p2d1f contracted to 5s3p2d1f pattern {62111/411/11/1}
 Group   2 Type Cl  : 14s9p3d1f contracted to 5s5p2d1f pattern {73211/51111/21/1}
 Group   3 Type O   : 11s6p2d1f contracted to 5s3p2d1f pattern {62111/411/11/1}
 Group   4 Type H   : 5s1p contracted to 3s1p pattern {311/1}

Atom   0C    basis set group =>   1
Atom   1C    basis set group =>   1
Atom   2C    basis set group =>   1
Atom   3C    basis set group =>   1
Atom   4C    basis set group =>   1
Atom   5C    basis set group =>   1
Atom   6Cl   basis set group =>   2
Atom   7O    basis set group =>   3
Atom   8O    basis set group =>   3
Atom   9C    basis set group =>   1
Atom  10C    basis set group =>   1
Atom  11C    basis set group =>   1
Atom  12C    basis set group =>   1
Atom  13C    basis set group =>   1
Atom  14C    basis set group =>   1
Atom  15Cl   basis set group =>   2
Atom  16Cl   basis set group =>   2
Atom  17H    basis set group =>   4
Atom  18H    basis set group =>   4
Atom  19H    basis set group =>   4
Atom  20H    basis set group =>   4
Atom  21H    basis set group =>   4
Atom  22H    basis set group =>   4
Atom  23H    basis set group =>   4
---------------------------------
AUXILIARY/J BASIS SET INFORMATION
---------------------------------
There are 4 groups of distinct atoms

 Group   1 Type C   : 12s5p4d2f1g contracted to 6s4p3d1f1g pattern {711111/2111/211/2/1}
 Group   2 Type Cl  : 14s5p5d2f1g contracted to 8s4p3d1f1g pattern {71111111/2111/311/2/1}
 Group   3 Type O   : 12s5p4d2f1g contracted to 6s4p3d1f1g pattern {711111/2111/211/2/1}
 Group   4 Type H   : 5s2p1d contracted to 3s1p1d pattern {311/2/1}

Atom   0C    basis set group =>   1
Atom   1C    basis set group =>   1
Atom   2C    basis set group =>   1
Atom   3C    basis set group =>   1
Atom   4C    basis set group =>   1
Atom   5C    basis set group =>   1
Atom   6Cl   basis set group =>   2
Atom   7O    basis set group =>   3
Atom   8O    basis set group =>   3
Atom   9C    basis set group =>   1
Atom  10C    basis set group =>   1
Atom  11C    basis set group =>   1
Atom  12C    basis set group =>   1
Atom  13C    basis set group =>   1
Atom  14C    basis set group =>   1
Atom  15Cl   basis set group =>   2
Atom  16Cl   basis set group =>   2
Atom  17H    basis set group =>   4
Atom  18H    basis set group =>   4
Atom  19H    basis set group =>   4
Atom  20H    basis set group =>   4
Atom  21H    basis set group =>   4
Atom  22H    basis set group =>   4
Atom  23H    basis set group =>   4
------------------------------------------------------------------------------
                             ORCA STARTUP CALCULATIONS
                           -- RI-GTO INTEGRALS CHOSEN --
------------------------------------------------------------------------------
------------------------------------------------------------------------------
                   ___                                                        
                  /   \      - P O W E R E D   B Y -                         
                 /     \                                                     
                 |  |  |   _    _      __       _____    __    __             
                 |  |  |  | |  | |    /  \     |  _  \  |  |  /  |          
                  \  \/   | |  | |   /    \    | | | |  |  | /  /          
                 / \  \   | |__| |  /  /\  \   | |_| |  |  |/  /          
                |  |  |   |  __  | /  /__\  \  |    /   |      \           
                |  |  |   | |  | | |   __   |  |    \   |  |\   \          
                \     /   | |  | | |  |  |  |  | |\  \  |  | \   \       
                 \___/    |_|  |_| |__|  |__|  |_| \__\ |__|  \__/        
                                                                              
                      - O R C A' S   B I G   F R I E N D -                    
                                      &                                       
                       - I N T E G R A L  F E E D E R -                       
                                                                              
 v1 FN, 2020, v2 2021, v3 2022-2024                                           
------------------------------------------------------------------------------


----------------------
SHARK INTEGRAL PACKAGE
----------------------

Number of atoms                             ...     24
Number of basis functions                   ...    587
Number of shells                            ...    221
Maximum angular momentum                    ...      3
Integral batch strategy                     ... SHARK/LIBINT Hybrid
RI-J (if used) integral strategy            ... SPLIT-RIJ (Revised 2003 algorithm where possible)
Printlevel                                  ...      1
Contraction scheme used                     ... SEGMENTED contraction
Prescreening option                         ... SCHWARTZ
   Thresh                                   ... 2.500e-11
   Tcut                                     ... 2.500e-12
   Tpresel                                  ... 2.500e-12 
Coulomb Range Separation                    ... NOT USED
Exchange Range Separation                   ... NOT USED
Multipole approximations                    ... NOT USED
Finite Nucleus Model                        ... NOT USED
CABS basis                                  ... NOT available
Auxiliary Coulomb fitting basis             ... AVAILABLE
   # of basis functions in Aux-J            ...    916
   # of shells in Aux-J                     ...    296
   Maximum angular momentum in Aux-J        ...      4
Auxiliary J/K fitting basis                 ... NOT available
Auxiliary Correlation fitting basis         ... NOT available
Auxiliary 'external' fitting basis          ... NOT available

Checking pre-screening integrals            ... done (  0.0 sec) Dimension = 221
Check shell pair data                       ... done (  0.0 sec)
Shell pair information
Shell pair cut-off parameter TPreSel        ...   2.5e-12
Total number of shell pairs                 ...     24531
Shell pairs after pre-screening             ...     18134
Total number of primitive shell pairs       ...     81843
Primitive shell pairs kept                  ...     39993
          la=0 lb=0:   4014 shell pairs
          la=1 lb=0:   5130 shell pairs
          la=1 lb=1:   1655 shell pairs
          la=2 lb=0:   2641 shell pairs
          la=2 lb=1:   1675 shell pairs
          la=2 lb=2:    443 shell pairs
          la=3 lb=0:   1242 shell pairs
          la=3 lb=1:    810 shell pairs
          la=3 lb=2:    414 shell pairs
          la=3 lb=3:    110 shell pairs

Calculating one electron integrals          ... done (  0.1 sec)
Calculating RI/J V-Matrix + Cholesky decomp.... done (  0.0 sec)
Calculating Nuclear repulsion               ... done (  0.0 sec) ENN=   1433.084984797995 Eh

Diagonalization of the overlap matrix:
Smallest eigenvalue                        ... 9.488e-06
Time for diagonalization                   ...    0.023 sec
Threshold for overlap eigenvalues          ... 1.000e-07
Number of eigenvalues below threshold      ... 0
Time for construction of square roots      ...    0.017 sec
Total time needed                          ...    0.042 sec

-------------------
DFT GRID GENERATION
-------------------

General Integration Accuracy     IntAcc      ... 4.388
Radial Grid Type                 RadialGrid  ... OptM3 with GC (2021)
Angular Grid (max. ang.)         AngularGrid ... 4 (Lebedev-302)
Angular grid pruning method      GridPruning ... 4 (adaptive)
Weight generation scheme         WeightScheme... mBecke (2022)
Basis function cutoff            BFCut       ... 1.0000e-11
Integration weight cutoff        WCut        ... 1.0000e-14
Partially contracted basis set               ... off
Rotationally invariant grid construction     ... off
Angular grids for H and He will be reduced by one unit

Total number of grid points                  ...   128284
Total number of batches                      ...     2017
Average number of points per batch           ...       63
Average number of grid points per atom       ...     5345

--------------------
COSX GRID GENERATION
--------------------

GRIDX 1
-------
General Integration Accuracy     IntAcc      ... 3.816
Radial Grid Type                 RadialGrid  ... OptM3 with GC (2021)
Angular Grid (max. ang.)         AngularGrid ... 1 (Lebedev-50)
Angular grid pruning method      GridPruning ... 4 (adaptive)
Weight generation scheme         WeightScheme... mBecke (2022)
Basis function cutoff            BFCut       ... 1.0000e-11
Integration weight cutoff        WCut        ... 1.0000e-14
Partially contracted basis set               ... on
Rotationally invariant grid construction     ... off
Angular grids for H and He will be reduced by one unit

Total number of grid points                  ...    19350
Total number of batches                      ...      163
Average number of points per batch           ...      118
Average number of grid points per atom       ...      806
UseSFitting                                  ... on

GRIDX 2
-------
General Integration Accuracy     IntAcc      ... 4.020
Radial Grid Type                 RadialGrid  ... OptM3 with GC (2021)
Angular Grid (max. ang.)         AngularGrid ... 2 (Lebedev-110)
Angular grid pruning method      GridPruning ... 4 (adaptive)
Weight generation scheme         WeightScheme... mBecke (2022)
Basis function cutoff            BFCut       ... 1.0000e-11
Integration weight cutoff        WCut        ... 1.0000e-14
Partially contracted basis set               ... on
Rotationally invariant grid construction     ... off
Angular grids for H and He will be reduced by one unit

Total number of grid points                  ...    35974
Total number of batches                      ...      296
Average number of points per batch           ...      121
Average number of grid points per atom       ...     1499
UseSFitting                                  ... on

GRIDX 3
-------
General Integration Accuracy     IntAcc      ... 4.338
Radial Grid Type                 RadialGrid  ... OptM3 with GC (2021)
Angular Grid (max. ang.)         AngularGrid ... 3 (Lebedev-194)
Angular grid pruning method      GridPruning ... 4 (adaptive)
Weight generation scheme         WeightScheme... mBecke (2022)
Basis function cutoff            BFCut       ... 1.0000e-11
Integration weight cutoff        WCut        ... 1.0000e-14
Partially contracted basis set               ... on
Rotationally invariant grid construction     ... off
Angular grids for H and He will be reduced by one unit

Total number of grid points                  ...    80805
Total number of batches                      ...      642
Average number of points per batch           ...      125
Average number of grid points per atom       ...     3367
UseSFitting                                  ... on
Initializing property integral containers    ... done (  0.0 sec)

SHARK setup successfully completed in   2.7 seconds

Maximum memory used throughout the entire STARTUP-calculation: 93.1 MB
-------------------------------------------------------------------------------
                                 ORCA GUESS
                   Start orbitals & Density for SCF / CASSCF
-------------------------------------------------------------------------------

------------
SCF SETTINGS
------------
Hamiltonian:
 Density Functional     Method          .... DFT(GTOs)
 Exchange Functional    Exchange        .... B88
   X-Alpha parameter    XAlpha          ....  0.666667
   Becke's b parameter  XBeta           ....  0.004200
 Correlation Functional Correlation     .... LYP
 LDA part of GGA corr.  LDAOpt          .... VWN-5
 Gradients option       PostSCFGGA      .... off
 Hybrid DFT is turned on
   Fraction HF Exchange ScalHFX         ....  0.200000
   Scaling of DF-GGA-X  ScalDFX         ....  0.720000
   Scaling of DF-GGA-C  ScalDFC         ....  0.810000
   Scaling of DF-LDA-C  ScalLDAC        ....  1.000000
   Perturbative correction              ....  0.000000
   NL short-range parameter             ....  4.800000
 RI-approximation to the Coulomb term is turned on
   Number of AuxJ basis functions       .... 916
   RIJ-COSX (HFX calculated with COS-X)).... on


General Settings:
 Integral files         IntName         .... Triclosan\Triclosan_B3LYP_def2-TZVP\Triclosan_B3LYP_def2-TZVP.orcainp
 Hartree-Fock type      HFTyp           .... RHF
 Total Charge           Charge          ....    0
 Multiplicity           Mult            ....    1
 Number of Electrons    NEL             ....  146
 Basis Dimension        Dim             ....  587
 Nuclear Repulsion      ENuc            ....   1433.0849847980 Eh

Convergence Acceleration:
 AO-DIIS                CNVDIIS         .... on
   Start iteration      DIISMaxIt       ....    12
   Startup error        DIISStart       ....  0.200000
   # of expansion vecs  DIISMaxEq       ....     5
   Bias factor          DIISBfac        ....   1.050
   Max. coefficient     DIISMaxC        ....  10.000
 MO-DIIS                CNVKDIIS        .... off
 Trust-Rad. Augm. Hess. CNVTRAH         .... auto
   Auto Start mean grad. ratio tolernc. ....  1.125000
   Auto Start start iteration           ....    50
   Auto Start num. interpolation iter.  ....    10
   Max. Number of Micro iterations      ....    24
   Max. Number of Macro iterations      .... Maxiter - #DIIS iter
   Number of Davidson start vectors     ....     2
   Converg. threshold    (grad. norm)   ....   1.000e-05
   Grad. Scal. Fac. for Micro threshold ....   0.100
   Minimum threshold for Micro iter.    ....   1.000e-02
   NR start threshold (gradient norm)   ....   1.000e-04
   Initial trust radius                 ....   0.400
   Minimum AH scaling param. (alpha)    ....   1.000
   Maximum AH scaling param. (alpha)    .... 1000.000
   Quad. conv. algorithm                .... NR
   White noise on init. David. guess    .... on
   Maximum white noise                  ....   0.010
   Pseudo random numbers                .... off
   Inactive MOs                         .... canonical
   Orbital update algorithm             .... Taylor
   Preconditioner                       .... Diag
   Full preconditioner red. dimension   ....   250
 SOSCF                  CNVSOSCF        .... on
   Start iteration      SOSCFMaxIt      ....   150
   Startup grad/error   SOSCFStart      ....  0.003300
   Hessian update       SOSCFHessUp     .... L-BFGS
 Level Shifting         CNVShift        .... on
   Level shift para.    LevelShift      ....    0.2500
   Turn off err/grad.   ShiftErr        ....    0.0010
 Zerner damping         CNVZerner       .... off
 Static damping         CNVDamp         .... on
   Fraction old density DampFac         ....    0.7000
   Max. Damping (<1)    DampMax         ....    0.9800
   Min. Damping (>=0)   DampMin         ....    0.0000
   Turn off err/grad.   DampErr         ....    0.1000

SCF Procedure:
 Maximum # iterations   MaxIter         ....   125
 SCF integral mode      SCFMode         .... Direct
   Integral package                     .... SHARK and LIBINT hybrid scheme
 Reset frequency        DirectResetFreq ....    20
 Integral Threshold     Thresh          ....  2.500e-11 Eh
 Primitive CutOff       TCut            ....  2.500e-12 Eh

Convergence Tolerance:
 Convergence Check Mode ConvCheckMode   .... Total+1el-Energy
 Convergence forced     ConvForced      .... 0
 Energy Change          TolE            ....  1.000e-08 Eh
 1-El. energy change                    ....  1.000e-05 Eh
 Orbital Gradient       TolG            ....  1.000e-05
 Orbital Rotation angle TolX            ....  1.000e-05
 DIIS Error             TolErr          ....  5.000e-07

------------------------------
INITIAL GUESS: MODEL POTENTIAL
------------------------------
Loading Hartree-Fock densities                     ... done
Calculating cut-offs                               ... done
Initializing the effective Hamiltonian             ... done
Setting up the integral package (SHARK)            ... done
Starting the Coulomb interaction                   ... done (   0.6 sec)
Making the grid                                    ... done (   0.2 sec)
Mapping shells                                     ... done
Starting the XC term evaluation                    ... done (   0.8 sec)
  promolecular density results
     # of electrons  =    145.990678339
     EX              =   -162.821040438
     EC              =     -5.410528073
     EX+EC           =   -168.231568511
Transforming the Hamiltonian                       ... done (   0.0 sec)
Diagonalizing the Hamiltonian                      ... done (   0.0 sec)
Back transforming the eigenvectors                 ... done (   0.0 sec)
Now organizing SCF variables                       ... done
                      ------------------
                      INITIAL GUESS DONE (   1.6 sec)
                      ------------------
             **** ENERGY FILE WAS UPDATED (Triclosan\Triclosan_B3LYP_def2-TZVP\Triclosan_B3LYP_def2-TZVP.orcainp.en.tmp) ****
Finished Guess after   1.7 sec
Maximum memory used throughout the entire GUESS-calculation: 68.6 MB

-------------------------------------------------------------------------------------------
                                      ORCA LEAN-SCF
                              memory conserving SCF solver
-------------------------------------------------------------------------------------------

--------------------
CPCM SOLVATION MODEL
--------------------
CPCM parameters:
  Epsilon                                         ...      80.1510
  Refrac                                          ...       1.3328
  Rsolv                                           ...       1.3000
  Surface type                                    ... GAUSSIAN VDW
  Discretization scheme                           ... Constant charge density
    Threshold for H atoms                         ...       5.0000 (charges/Ang^2)
    Threshold for non-H atoms                     ...       5.0000 (charges/Ang^2)
  Epsilon function type                           ...         CPCM
Solvent:                                          ... WATER
Radii:
  Scheme                                          ... Element-dependent radii
  Radius for C  used is    3.8550 Bohr (=   2.0400 Ang.)
  Radius for Cl used is    3.9684 Bohr (=   2.1000 Ang.)
  Radius for O  used is    3.4469 Bohr (=   1.8240 Ang.)
  Radius for H  used is    2.4944 Bohr (=   1.3200 Ang.)
Calculating surface                               ...        done! (  0.0s)
Cavity surface points                             ...         2518
Cavity Volume                                     ...    1981.6541
Cavity Surface-area                               ...    1034.6095
Calculating surface distance matrix               ...        done! (  0.0s)
Performing Cholesky decomposition & store         ...        done! (  0.1s)
Overall time for CPCM initialization              ...                 0.1s

----------------------------------------D-I-I-S--------------------------------------------
Iteration    Energy (Eh)           Delta-E    RMSDP     MaxDP     DIISErr   Damp  Time(sec)
-------------------------------------------------------------------------------------------
               ***  Starting incremental Fock matrix formation  ***
    1    -1991.9846919548424466     0.00e+00  1.46e-03  1.38e-01  2.32e-01  0.700  22.7
    2    -1992.1284301392199723    -1.44e-01  1.40e-03  1.51e-01  9.93e-02  0.700  12.8
                               ***Turning on AO-DIIS***
    3    -1992.1879977346613941    -5.96e-02  6.12e-04  4.33e-02  3.36e-02  0.700  12.5
    4    -1992.2230013034475178    -3.50e-02  1.07e-03  6.88e-02  1.76e-02  0.000  11.9
    5    -1992.2991737293634742    -7.62e-02  3.18e-04  3.73e-02  6.71e-03  0.000  12.4
                              *** Initializing SOSCF ***
---------------------------------------S-O-S-C-F--------------------------------------
Iteration    Energy (Eh)           Delta-E    RMSDP     MaxDP     MaxGrad    Time(sec)
--------------------------------------------------------------------------------------
    6    -1992.2995788923174132    -4.05e-04  8.83e-05  7.74e-03  1.40e-03    11.2
               *** Restarting incremental Fock matrix formation ***
    7    -1992.2996117935419988    -3.29e-05  8.39e-05  7.43e-03  2.13e-04    22.7
    8    -1992.2996080315103882     3.76e-06  2.32e-05  2.67e-03  3.32e-04    16.4
    9    -1992.2996172353857673    -9.20e-06  7.56e-06  7.45e-04  3.40e-05    14.8
   10    -1992.2996171438587680     9.15e-08  3.71e-06  4.10e-04  4.33e-05    13.5
   11    -1992.2996173280018866    -1.84e-07  1.32e-06  1.16e-04  5.02e-06    11.8
   12    -1992.2996173431658917    -1.52e-08  1.50e-06  8.04e-05  7.31e-06    10.7
   13    -1992.2996173134913533     2.97e-08  3.27e-06  2.06e-04  8.75e-07     9.6
                  *** Gradient check signals convergence ***

               *****************************************************
               *                     SUCCESS                       *
               *           SCF CONVERGED AFTER  13 CYCLES          *
               *****************************************************

Recomputing exchange energy using gridx3       ... done (   36.943 sec)
Old exchange energy                            :    -32.769885668 Eh
New exchange energy                            :    -32.769873567 Eh
Exchange energy change after final integration :      0.000012101 Eh
Total energy after final integration           :  -1992.299605212 Eh
             **** ENERGY FILE WAS UPDATED (Triclosan\Triclosan_B3LYP_def2-TZVP\Triclosan_B3LYP_def2-TZVP.orcainp.en.tmp) ****

----------------
TOTAL SCF ENERGY
----------------

Total Energy       :      -1992.29960521213434 Eh          -54213.22841 eV

Components:
Nuclear Repulsion  :       1433.08498479799505 Eh           38996.22497 eV
Electronic Energy  :      -3425.37238130088144 Eh          -93209.12116 eV
One Electron Energy:      -5587.28225769624805 Eh         -152037.67968 eV
Two Electron Energy:       2161.90987639536661 Eh           58828.55852 eV
CPCM Dielectric    :         -0.01222081060518 Eh              -0.33255 eV

Virial components:
Potential Energy   :      -3980.00915784243034 Eh         -108301.55513 eV
Kinetic Energy     :       1987.70955263029600 Eh           54088.32672 eV
Virial Ratio       :          2.00230921694559

DFT components:
N(Alpha)           :       73.000039948164 electrons
N(Beta)            :       73.000039948164 electrons
N(Total)           :      146.000079896327 electrons
E(X)               :     -130.194959042461 Eh       
E(C)               :       -6.349659435511 Eh       
E(XC)              :     -136.544618477972 Eh       

CPCM Solvation Model Properties:
Surface-charge          :         -0.02819507461796
Corrected charge        :         -0.00000000000000
Outlying charge corr.   :          0.00004443952436 Eh               0.00121 eV
Free-energy (cav+disp)  :  This term is not implemented in the current solvation scheme

---------------
SCF CONVERGENCE
---------------

  Last Energy change         ...   -2.9675e-08  Tolerance :   1.0000e-08
  Last MAX-Density change    ...    2.0615e-04  Tolerance :   1.0000e-07
  Last RMS-Density change    ...    3.2729e-06  Tolerance :   5.0000e-09
  Last DIIS Error            ...    1.4008e-03  Tolerance :   5.0000e-07
  Last Orbital Gradient      ...    8.7472e-07  Tolerance :   1.0000e-05
  Last Orbital Rotation      ...    1.8691e-06  Tolerance :   1.0000e-05


----------------
ORBITAL ENERGIES
----------------

  NO   OCC          E(Eh)            E(eV) 
   0   2.0000    -101.538111     -2762.9925 
   1   2.0000    -101.533974     -2762.8799 
   2   2.0000    -101.530653     -2762.7895 
   3   2.0000     -19.190624      -522.2034 
   4   2.0000     -19.165050      -521.5075 
   5   2.0000     -10.262826      -279.2657 
   6   2.0000     -10.250597      -278.9329 
   7   2.0000     -10.249913      -278.9143 
   8   2.0000     -10.248032      -278.8631 
   9   2.0000     -10.243819      -278.7485 
  10   2.0000     -10.237479      -278.5760 
  11   2.0000     -10.201088      -277.5857 
  12   2.0000     -10.197907      -277.4991 
  13   2.0000     -10.195963      -277.4463 
  14   2.0000     -10.190562      -277.2993 
  15   2.0000     -10.187077      -277.2045 
  16   2.0000     -10.184631      -277.1379 
  17   2.0000      -9.470177      -257.6966 
  18   2.0000      -9.466422      -257.5944 
  19   2.0000      -9.463196      -257.5067 
  20   2.0000      -7.231765      -196.7863 
  21   2.0000      -7.227778      -196.6779 
  22   2.0000      -7.224472      -196.5879 
  23   2.0000      -7.223324      -196.5566 
  24   2.0000      -7.222809      -196.5426 
  25   2.0000      -7.219567      -196.4544 
  26   2.0000      -7.219209      -196.4447 
  27   2.0000      -7.216367      -196.3673 
  28   2.0000      -7.216031      -196.3582 
  29   2.0000      -1.105747       -30.0889 
  30   2.0000      -1.066500       -29.0210 
  31   2.0000      -0.915319       -24.9071 
  32   2.0000      -0.899566       -24.4784 
  33   2.0000      -0.885727       -24.1019 
  34   2.0000      -0.844542       -22.9812 
  35   2.0000      -0.833750       -22.6875 
  36   2.0000      -0.764301       -20.7977 
  37   2.0000      -0.761001       -20.7079 
  38   2.0000      -0.755126       -20.5480 
  39   2.0000      -0.720080       -19.5944 
  40   2.0000      -0.651095       -17.7172 
  41   2.0000      -0.636872       -17.3302 
  42   2.0000      -0.623367       -16.9627 
  43   2.0000      -0.602359       -16.3910 
  44   2.0000      -0.570035       -15.5114 
  45   2.0000      -0.542845       -14.7716 
  46   2.0000      -0.515573       -14.0294 
  47   2.0000      -0.508529       -13.8378 
  48   2.0000      -0.499065       -13.5802 
  49   2.0000      -0.478445       -13.0191 
  50   2.0000      -0.464682       -12.6446 
  51   2.0000      -0.454829       -12.3765 
  52   2.0000      -0.447145       -12.1674 
  53   2.0000      -0.443582       -12.0705 
  54   2.0000      -0.439199       -11.9512 
  55   2.0000      -0.420885       -11.4529 
  56   2.0000      -0.412903       -11.2357 
  57   2.0000      -0.404549       -11.0083 
  58   2.0000      -0.402057       -10.9405 
  59   2.0000      -0.391621       -10.6565 
  60   2.0000      -0.382916       -10.4197 
  61   2.0000      -0.373730       -10.1697 
  62   2.0000      -0.370090       -10.0707 
  63   2.0000      -0.362374        -9.8607 
  64   2.0000      -0.333165        -9.0659 
  65   2.0000      -0.328625        -8.9423 
  66   2.0000      -0.321235        -8.7412 
  67   2.0000      -0.320813        -8.7298 
  68   2.0000      -0.316074        -8.6008 
  69   2.0000      -0.269248        -7.3266 
  70   2.0000      -0.258216        -7.0264 
  71   2.0000      -0.247484        -6.7344 
  72   2.0000      -0.225362        -6.1324 
  73   0.0000      -0.042141        -1.1467 
  74   0.0000      -0.033787        -0.9194 
  75   0.0000      -0.018587        -0.5058 
  76   0.0000      -0.008695        -0.2366 
  77   0.0000       0.006670         0.1815 
  78   0.0000       0.025842         0.7032 
  79   0.0000       0.041658         1.1336 
  80   0.0000       0.053060         1.4438 
  81   0.0000       0.068469         1.8631 
  82   0.0000       0.074492         2.0270 
  83   0.0000       0.086066         2.3420 
*Only the first 10 virtual orbitals were printed.

                    ********************************
                    * MULLIKEN POPULATION ANALYSIS *
                    ********************************

-----------------------
MULLIKEN ATOMIC CHARGES
-----------------------
   0 C :   -0.201653
   1 C :   -0.210011
   2 C :    0.260492
   3 C :    0.140696
   4 C :   -0.252365
   5 C :    0.166483
   6 Cl:   -0.124580
   7 O :   -0.433227
   8 O :   -0.337510
   9 C :    0.276956
  10 C :    0.037987
  11 C :   -0.205526
  12 C :    0.152966
  13 C :   -0.170842
  14 C :   -0.214713
  15 Cl:   -0.114420
  16 Cl:   -0.096097
  17 H :    0.149741
  18 H :    0.174972
  19 H :    0.147548
  20 H :    0.360668
  21 H :    0.156968
  22 H :    0.157477
  23 H :    0.177989
Sum of atomic charges:    0.0000000

--------------------------------
MULLIKEN REDUCED ORBITAL CHARGES
--------------------------------
  0 C s       :     3.252061  s :     3.252061
      pz      :     1.006559  p :     2.859286
      px      :     0.947071
      py      :     0.905656
      dz2     :     0.005324  d :     0.082779
      dxz     :     0.014124
      dyz     :     0.014949
      dx2y2   :     0.018563
      dxy     :     0.029819
      f0      :     0.001514  f :     0.007527
      f+1     :     0.000621
      f-1     :     0.000611
      f+2     :     0.001202
      f-2     :     0.000203
      f+3     :     0.001745
      f-3     :     0.001631

  1 C s       :     3.270608  s :     3.270608
      pz      :     0.977450  p :     2.853643
      px      :     0.893680
      py      :     0.982513
      dz2     :     0.006146  d :     0.078285
      dxz     :     0.024655
      dyz     :     0.006862
      dx2y2   :     0.018038
      dxy     :     0.022583
      f0      :     0.001522  f :     0.007475
      f+1     :     0.000549
      f-1     :     0.000685
      f+2     :     0.000444
      f-2     :     0.001070
      f+3     :     0.001687
      f-3     :     0.001520

  2 C s       :     3.078664  s :     3.078664
      pz      :     1.043249  p :     2.491749
      px      :     0.625743
      py      :     0.822757
      dz2     :     0.009510  d :     0.154155
      dxz     :     0.040067
      dyz     :     0.022409
      dx2y2   :     0.035221
      dxy     :     0.046948
      f0      :     0.002236  f :     0.014941
      f+1     :     0.001281
      f-1     :     0.000697
      f+2     :     0.002015
      f-2     :     0.001291
      f+3     :     0.003896
      f-3     :     0.003524

  3 C s       :     3.110851  s :     3.110851
      pz      :     0.941958  p :     2.569918
      px      :     0.812802
      py      :     0.815158
      dz2     :     0.006330  d :     0.162884
      dxz     :     0.038112
      dyz     :     0.031775
      dx2y2   :     0.055950
      dxy     :     0.030716
      f0      :     0.002415  f :     0.015652
      f+1     :     0.001010
      f-1     :     0.000978
      f+2     :     0.001180
      f-2     :     0.002513
      f+3     :     0.004299
      f-3     :     0.003258

  4 C s       :     3.309020  s :     3.309020
      pz      :     1.025836  p :     2.862967
      px      :     0.918919
      py      :     0.918211
      dz2     :     0.005053  d :     0.072700
      dxz     :     0.022778
      dyz     :     0.006613
      dx2y2   :     0.021413
      dxy     :     0.016843
      f0      :     0.001568  f :     0.007679
      f+1     :     0.000627
      f-1     :     0.000694
      f+2     :     0.000414
      f-2     :     0.001045
      f+3     :     0.001686
      f-3     :     0.001645

  5 C s       :     3.096158  s :     3.096158
      pz      :     1.004325  p :     2.575209
      px      :     0.772024
      py      :     0.798860
      dz2     :     0.006785  d :     0.151392
      dxz     :     0.028002
      dyz     :     0.027793
      dx2y2   :     0.045444
      dxy     :     0.043369
      f0      :     0.001915  f :     0.010759
      f+1     :     0.000972
      f-1     :     0.000598
      f+2     :     0.001021
      f-2     :     0.001135
      f+3     :     0.002732
      f-3     :     0.002386

  6 Cls       :     5.875364  s :     5.875364
      pz      :     3.920140  p :    11.176394
      px      :     3.331285
      py      :     3.924969
      dz2     :     0.008167  d :     0.066854
      dxz     :     0.020102
      dyz     :     0.002244
      dx2y2   :     0.020883
      dxy     :     0.015459
      f0      :     0.000613  f :     0.005967
      f+1     :     0.001065
      f-1     :     0.000167
      f+2     :     0.000657
      f-2     :     0.000301
      f+3     :     0.001510
      f-3     :     0.001654

  7 O s       :     3.770482  s :     3.770482
      pz      :     1.800352  p :     4.630058
      px      :     1.284193
      py      :     1.545513
      dz2     :     0.003945  d :     0.031032
      dxz     :     0.003092
      dyz     :     0.004850
      dx2y2   :     0.006161
      dxy     :     0.012984
      f0      :     0.000280  f :     0.001655
      f+1     :     0.000327
      f-1     :     0.000198
      f+2     :     0.000051
      f-2     :     0.000199
      f+3     :     0.000154
      f-3     :     0.000446

  8 O s       :     3.783237  s :     3.783237
      pz      :     1.654452  p :     4.510869
      px      :     1.352717
      py      :     1.503700
      dz2     :     0.005619  d :     0.041239
      dxz     :     0.007623
      dyz     :     0.006912
      dx2y2   :     0.013317
      dxy     :     0.007768
      f0      :     0.000287  f :     0.002166
      f+1     :     0.000218
      f-1     :     0.000280
      f+2     :     0.000355
      f-2     :     0.000272
      f+3     :     0.000365
      f-3     :     0.000387

  9 C s       :     3.072782  s :     3.072782
      pz      :     0.846070  p :     2.465885
      px      :     0.946763
      py      :     0.673052
      dz2     :     0.043177  d :     0.169155
      dxz     :     0.027655
      dyz     :     0.034727
      dx2y2   :     0.035379
      dxy     :     0.028217
      f0      :     0.001731  f :     0.015222
      f+1     :     0.001540
      f-1     :     0.003359
      f+2     :     0.002473
      f-2     :     0.002401
      f+3     :     0.001992
      f-3     :     0.001726

 10 C s       :     3.181876  s :     3.181876
      pz      :     0.835520  p :     2.624614
      px      :     0.902037
      py      :     0.887057
      dz2     :     0.033620  d :     0.144799
      dxz     :     0.025881
      dyz     :     0.030796
      dx2y2   :     0.029705
      dxy     :     0.024798
      f0      :     0.001188  f :     0.010724
      f+1     :     0.001638
      f-1     :     0.001892
      f+2     :     0.001398
      f-2     :     0.001867
      f+3     :     0.001486
      f-3     :     0.001255

 11 C s       :     3.281111  s :     3.281111
      pz      :     0.941207  p :     2.831842
      px      :     0.946836
      py      :     0.943799
      dz2     :     0.020971  d :     0.084837
      dxz     :     0.014563
      dyz     :     0.020056
      dx2y2   :     0.012239
      dxy     :     0.017008
      f0      :     0.001294  f :     0.007735
      f+1     :     0.000590
      f-1     :     0.001435
      f+2     :     0.001142
      f-2     :     0.001582
      f+3     :     0.000573
      f-3     :     0.001119

 12 C s       :     3.102822  s :     3.102822
      pz      :     0.856832  p :     2.583023
      px      :     0.892329
      py      :     0.833862
      dz2     :     0.032844  d :     0.150466
      dxz     :     0.025519
      dyz     :     0.032488
      dx2y2   :     0.032844
      dxy     :     0.026771
      f0      :     0.001446  f :     0.010724
      f+1     :     0.001140
      f-1     :     0.001749
      f+2     :     0.001791
      f-2     :     0.001812
      f+3     :     0.001576
      f-3     :     0.001210

 13 C s       :     3.253698  s :     3.253698
      pz      :     0.950169  p :     2.826665
      px      :     0.935876
      py      :     0.940620
      dz2     :     0.015666  d :     0.082939
      dxz     :     0.011593
      dyz     :     0.016216
      dx2y2   :     0.019965
      dxy     :     0.019499
      f0      :     0.000371  f :     0.007541
      f+1     :     0.001082
      f-1     :     0.001393
      f+2     :     0.000880
      f-2     :     0.001413
      f+3     :     0.001306
      f-3     :     0.001098

 14 C s       :     3.282553  s :     3.282553
      pz      :     0.897112  p :     2.847735
      px      :     0.971929
      py      :     0.978694
      dz2     :     0.020959  d :     0.077034
      dxz     :     0.015096
      dyz     :     0.014189
      dx2y2   :     0.009371
      dxy     :     0.017420
      f0      :     0.001271  f :     0.007391
      f+1     :     0.000648
      f-1     :     0.001335
      f+2     :     0.000976
      f-2     :     0.001523
      f+3     :     0.000619
      f-3     :     0.001019

 15 Cls       :     5.877267  s :     5.877267
      pz      :     3.802802  p :    11.164962
      px      :     3.907777
      py      :     3.454384
      dz2     :     0.008947  d :     0.066238
      dxz     :     0.006517
      dyz     :     0.019469
      dx2y2   :     0.018181
      dxy     :     0.013124
      f0      :     0.000659  f :     0.005954
      f+1     :     0.000103
      f-1     :     0.000991
      f+2     :     0.001310
      f-2     :     0.000989
      f+3     :     0.000914
      f-3     :     0.000988

 16 Cls       :     5.880884  s :     5.880884
      pz      :     3.453619  p :    11.143623
      px      :     3.769959
      py      :     3.920044
      dz2     :     0.023176  d :     0.065678
      dxz     :     0.020307
      dyz     :     0.011248
      dx2y2   :     0.004121
      dxy     :     0.006827
      f0      :     0.001206  f :     0.005912
      f+1     :     0.001895
      f-1     :     0.000802
      f+2     :     0.000779
      f-2     :     0.000962
      f+3     :     0.000108
      f-3     :     0.000161

 17 H s       :     0.827836  s :     0.827836
      pz      :     0.004902  p :     0.022423
      px      :     0.009015
      py      :     0.008505

 18 H s       :     0.802485  s :     0.802485
      pz      :     0.004735  p :     0.022542
      px      :     0.003895
      py      :     0.013912

 19 H s       :     0.830104  s :     0.830104
      pz      :     0.004824  p :     0.022348
      px      :     0.003676
      py      :     0.013848

 20 H s       :     0.594242  s :     0.594242
      pz      :     0.014711  p :     0.045089
      px      :     0.018434
      py      :     0.011945

 21 H s       :     0.820571  s :     0.820571
      pz      :     0.005127  p :     0.022461
      px      :     0.010016
      py      :     0.007319

 22 H s       :     0.820256  s :     0.820256
      pz      :     0.011510  p :     0.022267
      px      :     0.006421
      py      :     0.004336

 23 H s       :     0.799453  s :     0.799453
      pz      :     0.005529  p :     0.022557
      px      :     0.009608
      py      :     0.007421



                     *******************************
                     * LOEWDIN POPULATION ANALYSIS *
                     *******************************

----------------------
LOEWDIN ATOMIC CHARGES
----------------------
   0 C :   -0.158067
   1 C :   -0.105810
   2 C :   -0.224755
   3 C :   -0.246186
   4 C :   -0.123485
   5 C :   -0.456109
   6 Cl:    0.397762
   7 O :    0.071124
   8 O :    0.304582
   9 C :   -0.227696
  10 C :   -0.409168
  11 C :   -0.139172
  12 C :   -0.448598
  13 C :   -0.133995
  14 C :   -0.095268
  15 Cl:    0.404110
  16 Cl:    0.412011
  17 H :    0.154581
  18 H :    0.165069
  19 H :    0.159989
  20 H :    0.211041
  21 H :    0.160395
  22 H :    0.159243
  23 H :    0.168404

-------------------------------
LOEWDIN REDUCED ORBITAL CHARGES
-------------------------------
  0 C s       :     2.768386  s :     2.768386
      pz      :     0.919318  p :     2.966247
      px      :     1.029913
      py      :     1.017016
      dz2     :     0.026646  d :     0.380433
      dxz     :     0.045049
      dyz     :     0.049872
      dx2y2   :     0.103534
      dxy     :     0.155331
      f0      :     0.003204  f :     0.043002
      f+1     :     0.003863
      f-1     :     0.004104
      f+2     :     0.008155
      f-2     :     0.001416
      f+3     :     0.011622
      f-3     :     0.010637

  1 C s       :     2.763060  s :     2.763060
      pz      :     0.893155  p :     2.926970
      px      :     1.042712
      py      :     0.991103
      dz2     :     0.025942  d :     0.372920
      dxz     :     0.083161
      dyz     :     0.018562
      dx2y2   :     0.129738
      dxy     :     0.115518
      f0      :     0.003153  f :     0.042861
      f+1     :     0.004556
      f-1     :     0.003326
      f+2     :     0.002768
      f-2     :     0.007488
      f+3     :     0.011296
      f-3     :     0.010273

  2 C s       :     2.707814  s :     2.707814
      pz      :     0.920048  p :     2.785428
      px      :     0.830021
      py      :     1.035358
      dz2     :     0.047755  d :     0.640002
      dxz     :     0.115954
      dyz     :     0.075960
      dx2y2   :     0.218696
      dxy     :     0.181637
      f0      :     0.006477  f :     0.091511
      f+1     :     0.009248
      f-1     :     0.005108
      f+2     :     0.013537
      f-2     :     0.008753
      f+3     :     0.025925
      f-3     :     0.022463

  3 C s       :     2.714187  s :     2.714187
      pz      :     0.871402  p :     2.767173
      px      :     0.944336
      py      :     0.951434
      dz2     :     0.046560  d :     0.670005
      dxz     :     0.111752
      dyz     :     0.110030
      dx2y2   :     0.195728
      dxy     :     0.205935
      f0      :     0.006749  f :     0.094822
      f+1     :     0.006800
      f-1     :     0.007337
      f+2     :     0.007924
      f-2     :     0.017340
      f+3     :     0.027119
      f-3     :     0.021552

  4 C s       :     2.765421  s :     2.765421
      pz      :     0.925513  p :     2.956476
      px      :     1.034634
      py      :     0.996330
      dz2     :     0.026927  d :     0.358739
      dxz     :     0.074495
      dyz     :     0.016847
      dx2y2   :     0.135509
      dxy     :     0.104961
      f0      :     0.003337  f :     0.042849
      f+1     :     0.004697
      f-1     :     0.003439
      f+2     :     0.002665
      f-2     :     0.007261
      f+3     :     0.010961
      f-3     :     0.010490

  5 C s       :     2.777528  s :     2.777528
      pz      :     0.929185  p :     2.984544
      px      :     0.962344
      py      :     1.093015
      dz2     :     0.042481  d :     0.628894
      dxz     :     0.095113
      dyz     :     0.090750
      dx2y2   :     0.209036
      dxy     :     0.191515
      f0      :     0.004332  f :     0.065144
      f+1     :     0.005507
      f-1     :     0.004699
      f+2     :     0.007304
      f-2     :     0.007928
      f+3     :     0.018874
      f-3     :     0.016500

  6 Cls       :     5.532283  s :     5.532283
      pz      :     3.838523  p :    10.949061
      px      :     3.308177
      py      :     3.802361
      dz2     :     0.012528  d :     0.108417
      dxz     :     0.031867
      dyz     :     0.003337
      dx2y2   :     0.033002
      dxy     :     0.027683
      f0      :     0.001375  f :     0.012478
      f+1     :     0.001884
      f-1     :     0.000348
      f+2     :     0.001535
      f-2     :     0.000682
      f+3     :     0.003267
      f-3     :     0.003386

  7 O s       :     3.331903  s :     3.331903
      pz      :     1.693339  p :     4.522953
      px      :     1.279215
      py      :     1.550399
      dz2     :     0.007217  d :     0.069206
      dxz     :     0.008952
      dyz     :     0.007957
      dx2y2   :     0.019176
      dxy     :     0.025905
      f0      :     0.000520  f :     0.004813
      f+1     :     0.000575
      f-1     :     0.000326
      f+2     :     0.000067
      f-2     :     0.000762
      f+3     :     0.000876
      f-3     :     0.001688

  8 O s       :     3.219067  s :     3.219067
      pz      :     1.554145  p :     4.361245
      px      :     1.372200
      py      :     1.434899
      dz2     :     0.013636  d :     0.108451
      dxz     :     0.020959
      dyz     :     0.015960
      dx2y2   :     0.032865
      dxy     :     0.025032
      f0      :     0.000674  f :     0.006656
      f+1     :     0.000552
      f-1     :     0.000835
      f+2     :     0.001279
      f-2     :     0.000691
      f+3     :     0.001279
      f-3     :     0.001346

  9 C s       :     2.716974  s :     2.716974
      pz      :     0.967977  p :     2.774660
      px      :     0.970356
      py      :     0.836328
      dz2     :     0.140204  d :     0.645311
      dxz     :     0.106127
      dyz     :     0.161590
      dx2y2   :     0.133440
      dxy     :     0.103949
      f0      :     0.009506  f :     0.090751
      f+1     :     0.009719
      f-1     :     0.020466
      f+2     :     0.016293
      f-2     :     0.011315
      f+3     :     0.012140
      f-3     :     0.011312

 10 C s       :     2.779151  s :     2.779151
      pz      :     0.945856  p :     2.969585
      px      :     0.991414
      py      :     1.032316
      dz2     :     0.136283  d :     0.598239
      dxz     :     0.124264
      dyz     :     0.125303
      dx2y2   :     0.108717
      dxy     :     0.103672
      f0      :     0.007743  f :     0.062193
      f+1     :     0.009270
      f-1     :     0.011595
      f+2     :     0.009714
      f-2     :     0.008297
      f+3     :     0.009144
      f-3     :     0.006430

 11 C s       :     2.772778  s :     2.772778
      pz      :     1.003521  p :     2.947005
      px      :     0.954011
      py      :     0.989473
      dz2     :     0.087897  d :     0.376150
      dxz     :     0.069030
      dyz     :     0.093332
      dx2y2   :     0.050930
      dxy     :     0.074961
      f0      :     0.006602  f :     0.043239
      f+1     :     0.005452
      f-1     :     0.008334
      f+2     :     0.007255
      f-2     :     0.005914
      f+3     :     0.004332
      f-3     :     0.005350

 12 C s       :     2.778093  s :     2.778093
      pz      :     1.018824  p :     2.983806
      px      :     1.013419
      py      :     0.951563
      dz2     :     0.123311  d :     0.621924
      dxz     :     0.106472
      dyz     :     0.147201
      dx2y2   :     0.131814
      dxy     :     0.113126
      f0      :     0.007705  f :     0.064775
      f+1     :     0.007958
      f-1     :     0.012489
      f+2     :     0.010760
      f-2     :     0.008398
      f+3     :     0.010011
      f-3     :     0.007455

 13 C s       :     2.770894  s :     2.770894
      pz      :     0.966648  p :     2.940151
      px      :     0.960709
      py      :     1.012795
      dz2     :     0.067019  d :     0.379850
      dxz     :     0.062847
      dyz     :     0.075203
      dx2y2   :     0.087246
      dxy     :     0.087536
      f0      :     0.002663  f :     0.043099
      f+1     :     0.005255
      f-1     :     0.008401
      f+2     :     0.006879
      f-2     :     0.006101
      f+3     :     0.008361
      f-3     :     0.005441

 14 C s       :     2.765865  s :     2.765865
      pz      :     0.982768  p :     2.922565
      px      :     0.943592
      py      :     0.996204
      dz2     :     0.091585  d :     0.364740
      dxz     :     0.064893
      dyz     :     0.090190
      dx2y2   :     0.043955
      dxy     :     0.074116
      f0      :     0.006709  f :     0.042099
      f+1     :     0.005448
      f-1     :     0.008790
      f+2     :     0.006632
      f-2     :     0.005349
      f+3     :     0.004388
      f-3     :     0.004784

 15 Cls       :     5.534543  s :     5.534543
      pz      :     3.713508  p :    10.941849
      px      :     3.807369
      py      :     3.420971
      dz2     :     0.015591  d :     0.107104
      dxz     :     0.010091
      dyz     :     0.030890
      dx2y2   :     0.027961
      dxy     :     0.022571
      f0      :     0.001163  f :     0.012395
      f+1     :     0.000241
      f-1     :     0.002477
      f+2     :     0.002496
      f-2     :     0.002022
      f+3     :     0.001940
      f-3     :     0.002056

 16 Cls       :     5.539490  s :     5.539490
      pz      :     3.421790  p :    10.929984
      px      :     3.694184
      py      :     3.814010
      dz2     :     0.036460  d :     0.106149
      dxz     :     0.031690
      dyz     :     0.019955
      dx2y2   :     0.007168
      dxy     :     0.010876
      f0      :     0.002735  f :     0.012366
      f+1     :     0.003497
      f-1     :     0.001748
      f+2     :     0.001772
      f-2     :     0.001988
      f+3     :     0.000281
      f-3     :     0.000347

 17 H s       :     0.785406  s :     0.785406
      pz      :     0.014079  p :     0.060014
      px      :     0.023485
      py      :     0.022450

 18 H s       :     0.774347  s :     0.774347
      pz      :     0.013479  p :     0.060584
      px      :     0.011456
      py      :     0.035650

 19 H s       :     0.779656  s :     0.779656
      pz      :     0.014081  p :     0.060354
      px      :     0.010894
      py      :     0.035379

 20 H s       :     0.639197  s :     0.639197
      pz      :     0.042107  p :     0.149763
      px      :     0.062438
      py      :     0.045218

 21 H s       :     0.779148  s :     0.779148
[...]
      px      :     1.258718
      py      :     1.567373
      dz2     :     0.007951  d :     0.070533
      dxz     :     0.010742
      dyz     :     0.005651
      dx2y2   :     0.016022
      dxy     :     0.030166
      f0      :     0.000420  f :     0.004901
      f+1     :     0.000766
      f-1     :     0.000303
      f+2     :     0.000146
      f-2     :     0.000720
      f+3     :     0.001119
      f-3     :     0.001428

  8 O s       :     3.216249  s :     3.216249
      pz      :     1.529120  p :     4.357890
      px      :     1.372232
      py      :     1.456538
      dz2     :     0.016982  d :     0.109623
      dxz     :     0.024259
      dyz     :     0.018264
      dx2y2   :     0.025873
      dxy     :     0.024245
      f0      :     0.000742  f :     0.006617
      f+1     :     0.000638
      f-1     :     0.000857
      f+2     :     0.001260
      f-2     :     0.000953
      f+3     :     0.001136
      f-3     :     0.001031

  9 C s       :     2.711343  s :     2.711343
      pz      :     0.955834  p :     2.769569
      px      :     0.960547
      py      :     0.853188
      dz2     :     0.155956  d :     0.662869
      dxz     :     0.136865
      dyz     :     0.152063
      dx2y2   :     0.122655
      dxy     :     0.095330
      f0      :     0.012293  f :     0.094205
      f+1     :     0.012788
      f-1     :     0.019695
      f+2     :     0.017163
      f-2     :     0.012824
      f+3     :     0.009800
      f-3     :     0.009641

 10 C s       :     2.775292  s :     2.775292
      pz      :     0.949063  p :     2.965405
      px      :     1.007098
      py      :     1.009244
      dz2     :     0.154475  d :     0.592955
      dxz     :     0.142809
      dyz     :     0.112619
      dx2y2   :     0.096215
      dxy     :     0.086837
      f0      :     0.009695  f :     0.062182
      f+1     :     0.010629
      f-1     :     0.010986
      f+2     :     0.009355
      f-2     :     0.008184
      f+3     :     0.006955
      f-3     :     0.006378

 11 C s       :     2.767902  s :     2.767902
      pz      :     1.027352  p :     2.946295
      px      :     0.961842
      py      :     0.957100
      dz2     :     0.106606  d :     0.381154
      dxz     :     0.087209
      dyz     :     0.089267
      dx2y2   :     0.042230
      dxy     :     0.055842
      f0      :     0.007445  f :     0.044415
      f+1     :     0.006858
      f-1     :     0.009081
      f+2     :     0.007435
      f-2     :     0.006250
      f+3     :     0.002635
      f-3     :     0.004710

 12 C s       :     2.777419  s :     2.777419
      pz      :     1.011441  p :     2.974928
      px      :     1.020536
      py      :     0.942951
      dz2     :     0.127702  d :     0.607591
      dxz     :     0.142305
      dyz     :     0.136273
      dx2y2   :     0.103873
      dxy     :     0.097438
      f0      :     0.009738  f :     0.063316
      f+1     :     0.009777
      f-1     :     0.011504
      f+2     :     0.009446
      f-2     :     0.008727
      f+3     :     0.007691
      f-3     :     0.006434

 13 C s       :     2.765732  s :     2.765732
      pz      :     0.984050  p :     2.938062
      px      :     0.983826
      py      :     0.970186
      dz2     :     0.084696  d :     0.384765
      dxz     :     0.082768
      dyz     :     0.054779
      dx2y2   :     0.085643
      dxy     :     0.076878
      f0      :     0.004407  f :     0.044200
      f+1     :     0.006692
      f-1     :     0.006741
      f+2     :     0.007276
      f-2     :     0.006492
      f+3     :     0.006715
      f-3     :     0.005877

 14 C s       :     2.757507  s :     2.757507
      pz      :     1.006070  p :     2.932355
      px      :     0.962423
      py      :     0.963863
      dz2     :     0.109833  d :     0.369357
      dxz     :     0.079895
      dyz     :     0.082602
      dx2y2   :     0.037752
      dxy     :     0.059275
      f0      :     0.007440  f :     0.043439
      f+1     :     0.006823
      f-1     :     0.009302
      f+2     :     0.006885
      f-2     :     0.005902
      f+3     :     0.002611
      f-3     :     0.004476

 15 Cls       :     5.556341  s :     5.556341
      pz      :     3.632910  p :    10.966968
      px      :     3.758056
      py      :     3.576003
      dz2     :     0.016205  d :     0.098793
      dxz     :     0.017940
      dyz     :     0.027348
      dx2y2   :     0.019942
      dxy     :     0.017357
      f0      :     0.001173  f :     0.011137
      f+1     :     0.000910
      f-1     :     0.002073
      f+2     :     0.001996
      f-2     :     0.002661
      f+3     :     0.001205
      f-3     :     0.001119

 16 Cls       :     5.550177  s :     5.550177
      pz      :     3.366457  p :    10.943190
      px      :     3.742275
      py      :     3.834459
      dz2     :     0.038472  d :     0.101875
      dxz     :     0.030133
      dyz     :     0.021459
      dx2y2   :     0.004408
      dxy     :     0.007403
      f0      :     0.003273  f :     0.011723
      f+1     :     0.003603
      f-1     :     0.001924
      f+2     :     0.001241
      f-2     :     0.001385
      f+3     :     0.000126
      f-3     :     0.000172

 17 H s       :     0.784042  s :     0.784042
      pz      :     0.014730  p :     0.060912
      px      :     0.027745
      py      :     0.018437

 18 H s       :     0.775106  s :     0.775106
      pz      :     0.014247  p :     0.060062
      px      :     0.010517
      py      :     0.035298

 19 H s       :     0.779215  s :     0.779215
      pz      :     0.015316  p :     0.061306
      px      :     0.010100
      py      :     0.035889

 20 H s       :     0.638549  s :     0.638549
      pz      :     0.041268  p :     0.152918
      px      :     0.058223
      py      :     0.053426

 21 H s       :     0.778688  s :     0.778688
      pz      :     0.012820  p :     0.061173
      px      :     0.029558
      py      :     0.018795

 22 H s       :     0.780844  s :     0.780844
      pz      :     0.032251  p :     0.060413
      px      :     0.015739
      py      :     0.012422

 23 H s       :     0.771245  s :     0.771245
      pz      :     0.013143  p :     0.061924
      px      :     0.029328
      py      :     0.019452



                      *****************************
                      * MAYER POPULATION ANALYSIS *
                      *****************************

  NA   - Mulliken gross atomic population
  ZA   - Total nuclear charge
  QA   - Mulliken gross atomic charge
  VA   - Mayer's total valence
  BVA  - Mayer's bonded valence
  FA   - Mayer's free valence

  ATOM       NA         ZA         QA         VA         BVA        FA
  0 C      6.2064     6.0000    -0.2064     3.9178     3.9178     0.0000
  1 C      6.1796     6.0000    -0.1796     3.9090     3.9090     0.0000
  2 C      5.7979     6.0000     0.2021     3.5720     3.5720     0.0000
  3 C      5.8194     6.0000     0.1806     4.0829     4.0829    -0.0000
  4 C      6.2731     6.0000    -0.2731     3.9588     3.9588     0.0000
  5 C      5.8033     6.0000     0.1967     3.7006     3.7006     0.0000
  6 Cl    17.1360    17.0000    -0.1360     1.1788     1.1788    -0.0000
  7 O      8.4214     8.0000    -0.4214     2.0885     2.0885    -0.0000
  8 O      8.3365     8.0000    -0.3365     2.0699     2.0699     0.0000
  9 C      5.7008     6.0000     0.2992     3.7591     3.7591     0.0000
 10 C      5.9624     6.0000     0.0376     3.7676     3.7676    -0.0000
 11 C      6.2017     6.0000    -0.2017     3.9383     3.9383     0.0000
 12 C      5.8384     6.0000     0.1616     3.7117     3.7117    -0.0000
 13 C      6.1880     6.0000    -0.1880     3.9310     3.9310     0.0000
 14 C      6.2109     6.0000    -0.2109     3.8783     3.8783     0.0000
 15 Cl    17.1308    17.0000    -0.1308     1.1845     1.1845     0.0000
 16 Cl    17.1076    17.0000    -0.1076     1.2234     1.2234    -0.0000
 17 H      0.8479     1.0000     0.1521     0.9755     0.9755     0.0000
 18 H      0.8343     1.0000     0.1657     0.9682     0.9682     0.0000
 19 H      0.8520     1.0000     0.1480     0.9881     0.9881     0.0000
 20 H      0.6396     1.0000     0.3604     0.8923     0.8923    -0.0000
 21 H      0.8440     1.0000     0.1560     0.9831     0.9831    -0.0000
 22 H      0.8436     1.0000     0.1564     0.9745     0.9745     0.0000
 23 H      0.8244     1.0000     0.1756     0.9655     0.9655     0.0000

  Mayer bond orders larger than 0.100000
B(  0-C ,  1-C ) :   1.3786 B(  0-C ,  5-C ) :   1.3405 B(  0-C , 17-H ) :   0.9730 
B(  1-C ,  2-C ) :   1.3558 B(  1-C , 18-H ) :   0.9604 B(  2-C ,  3-C ) :   1.2986 
B(  2-C ,  8-O ) :   0.8516 B(  3-C ,  4-C ) :   1.3616 B(  3-C ,  7-O ) :   1.1933 
B(  4-C ,  5-C ) :   1.3626 B(  4-C , 19-H ) :   0.9743 B(  5-C ,  6-Cl) :   0.9199 
B(  7-O , 20-H ) :   0.8425 B(  8-O ,  9-C ) :   1.0199 B(  9-C , 10-C ) :   1.2590 
B(  9-C , 14-C ) :   1.3580 B( 10-C , 11-C ) :   1.3424 B( 10-C , 16-Cl) :   1.0251 
B( 11-C , 12-C ) :   1.3255 B( 11-C , 21-H ) :   0.9706 B( 12-C , 13-C ) :   1.3450 
B( 12-C , 15-Cl) :   0.9251 B( 13-C , 14-C ) :   1.3858 B( 13-C , 22-H ) :   0.9700 
B( 14-C , 23-H ) :   0.9486 

-------
TIMINGS
-------

Total SCF time: 0 days 0 hours 2 min 0 sec 

Total time                  ....     120.122 sec
Sum of individual times     ....     120.055 sec  ( 99.9%)

SCF preparation             ....       0.274 sec  (  0.2%)
Fock matrix formation       ....     119.307 sec  ( 99.3%)
  Startup                   ....       0.014 sec  (  0.0% of F)
  Split-RI-J                ....       5.516 sec  (  4.6% of F)
  Chain of spheres X        ....      97.421 sec  ( 81.7% of F)
  XC integration            ....       8.268 sec  (  6.9% of F)
    Basis function eval.    ....       2.141 sec  ( 25.9% of XC)
    Density eval.           ....       2.381 sec  ( 28.8% of XC)
    XC-Functional eval.     ....       0.120 sec  (  1.5% of XC)
    XC-Potential eval.      ....       3.434 sec  ( 41.5% of XC)
  CPCM terms                ....       8.031 sec  (  6.7% of F)
Diagonalization             ....       0.000 sec  (  0.0%)
Density matrix formation    ....       0.033 sec  (  0.0%)
Total Energy calculation    ....       0.033 sec  (  0.0%)
Population analysis         ....       0.065 sec  (  0.1%)
Orbital Transformation      ....       0.057 sec  (  0.0%)
Orbital Orthonormalization  ....       0.000 sec  (  0.0%)
DIIS solution               ....       0.065 sec  (  0.1%)
SOSCF solution              ....       0.221 sec  (  0.2%)
Finished LeanSCF after 120.2 sec

Maximum memory used throughout the entire LEANSCF-calculation: 110.2 MB

-------------------------   --------------------
FINAL SINGLE POINT ENERGY     -1992.305743770077
-------------------------   --------------------

                                *** OPTIMIZATION RUN DONE ***


------------------------------------------------------------------------------
                              ORCA PROPERTY CALCULATIONS
------------------------------------------------------------------------------

GBWName                                 ... Triclosan\Triclosan_B3LYP_def2-TZVP\Triclosan_B3LYP_def2-TZVP.orcainp.gbw
Number of atoms                         ...     24
Number of basis functions               ...    587
Max core memory                         ...   1024 MB

Electric properties:
Dipole moment                           ... YES
Quadrupole moment                       ...  NO
Static polarizability (Dipole/Dipole)   ...  NO
Static polarizability (Dipole/Quad.)    ...  NO
Static polarizability (Quad./Quad.)     ...  NO
Static polarizability (Velocity)        ...  NO

Atomic electric properties:
Dipole moment                           ...  NO
Quadrupole moment                       ...  NO
Static polarizability                   ...  NO

Choice of electric origin               ... Center of mass
Position of electric origin             ...     4.641988     3.855773    -1.057665

General magnetic properties:
Magnetizability                         ...  NO

EPR properties:
g-Tensor (aka g-matrix)                 ...  NO
Zero-Field splitting spin-orbit         ...  NO
Zero-field splitting spin-spin          ...  NO
Hyperfine couplings                     ...  NO (   0 nuclei)
Quadrupole couplings                    ...  NO (   0 nuclei)
Contact density                         ...  NO (   0 nuclei)

NMR properties:
Chemical shifts                         ...  NO (   0 nuclei)
Spin-rotation constants                 ...  NO (   0 nuclei)
Spin-spin couplings                     ...  NO (   0 nuclei,    0 pairs)

Choice of magnetic origin               ... GIAO
Position of magnetic origin             ...     0.000000     0.000000     0.000000

Properties with geometric perturbations:
SCF Hessian                             ...  NO
IR spectrum                             ...  NO
VCD spectrum                            ...  NO
X-ray spectroscopy properties:
SCF XES/XAS/RIXS spectra                ...  NO


-------------
DIPOLE MOMENT
-------------

Method             : SCF
Type of density    : Electron Density
Multiplicity       :   1
Irrep              :   0
Energy             : -1992.3057437700770151 Eh
Relativity type    : 
Basis              : AO
                                X                 Y                 Z
Electronic contribution:      4.360052025       3.675979817       1.010641453
Nuclear contribution   :     -4.313563744      -3.202709651      -1.341084039
                        -----------------------------------------
Total Dipole Moment    :      0.046488281       0.473270166      -0.330442586
                        -----------------------------------------
Magnitude (a.u.)       :      0.579083857
Magnitude (Debye)      :      1.471914189



--------------------
Rotational spectrum 
--------------------
 
Rotational constants in cm-1:             0.022031             0.004946             0.004401 
Rotational constants in MHz :           660.459719           148.275698           131.941234 

Dipole components along the rotational axes: 
x,y,z [a.u.] :    -0.398739    -0.398766     0.131647 
x,y,z [Debye]:    -1.013515    -1.013582     0.334620 

 

Dipole moment calculation done in   0.0 sec 

Maximum memory used throughout the entire PROP-calculation: 65.1 MB

--------------------------------
SUGGESTED CITATIONS FOR THIS RUN
--------------------------------

Below you find a list of papers that are relevant to this ORCA run
We neither can nor want to force you to cite these papers, but we appreciate if you do
You receive ORCA, which is the product of decades of hard work by many enthusiastic individuals, for free
The only thing we kindly ask in return is that you cite our papers,
We deeply appreciate it, if you show your appreciation for ORCA by not just citing the generic ORCA reference.

Please note that relegating all ORCA citations to the supporting information does *not* help us.
SI sections are not indexed - citations you put there will not count into any citation statistics
But we need these citations in order to attract the funding resources that allow us to do what we are doing

Therefore, if you are a happy ORCA user, please consider citing a few of the papers listed below in the main body of your paper

In addition to the list printed below, the program has created the file Triclosan\Triclosan_B3LYP_def2-TZVP\Triclosan_B3LYP_def2-TZVP.orcainp.bibtex that contains the list in bibtex format
You can import this file easily into all common literature databanks and citation aid programs


List of essential papers. We consider these as the minimum necessary citations

  1. Neese,F.
     Software update: the ORCA program system, version 5.0
     WIRES Comput. Molec. Sci., 2022 12(1)e1606
     doi.org/10.1002/wcms.1606

List of papers to cite with high priority. The work reported in these papers was absolutely
necessary for this run to complete.
Our perspective: the developers of density functionals and basis sets usually get cited in chemistry papers
Good! But without the algorithms to do something with them, the functionals or basis sets would not do anything.
Hence, in our opinion, the algorithm design and method developments papers are equally worthy of getting cited

  1. Neese,F.
     An improvement of the resolution of the identity approximation for the formation of the Coulomb matrix
     J. Comp. Chem., 2003 24(14)1740-1747
     doi.org/10.1002/jcc.10318
  2. Neese,F.; Wennmohs,F.; Hansen,A.; Becker,U.
     Efficient, approximate and parallel Hartree-Fock and hybrid DFT calculations. A 'chain-of-spheres' algorithm for the Hartree-Fock exchange
     Chem. Phys., 2009 356(1-3)98-109
     doi.org/10.1016/j.chemphys.2008.10.036
  3. Garcia-Rates,M.; Neese,F.
     Effect of the Solute Cavity on the Solvation Energy and its Derivatives within the Framework of the Gaussian Charge Scheme
     J. Comput. Chem., 2020 41 922-939
     doi.org/10.1002/jcc.26139
  4. Helmich-Paris,B.; de Souza,B.; Neese,F.; Izsák,R.
     An improved chain of spheres for exchange algorithm
     J. Chem. Phys., 2021 155 104109
     doi.org/doi: 10.1063/5.0058766.
  5. Neese,F.
     The SHARK Integral Generation and Digestion System
     J. Comp. Chem., 2022  1-16
     doi.org/10.1002/jcc.26942

List of suggested additional citations. These are papers that are important in the 'surrounding' of 
of this run, or papers that preceded the highly important papers. If you like your results we are grateful for a citation.

  1. Izsak,R.; Neese,F.
     An overlap fitted chain of spheres exchange method
     J. Chem. Phys., 2011 135 144105
     doi.org/10.1063/1.3646921
  2. Izsak,R.; Hansen,A.; Neese,F.
     The resolution of identity and chain of spheres approximations for the LPNO-CCSD singles Fock term
     Molec. Phys., 2012 110 2413-2417
     doi.org/10.1080/00268976.2012.687466
  3. Neese,F.
     The ORCA program system
     WIRES Comput. Molec. Sci., 2012 2(1)73-78
     doi.org/10.1002/wcms.81
  4. Izsak,R.; Neese,F.; Klopper,W.
     Robust fitting techniques in the chain of spheres approximation to the Fock exchange: The role of the complementary space
     J. Chem. Phys., 2013 139 
     doi.org/10.1063/1.4819264
  5. Neese,F.
     Software update: the ORCA program system, version 4.0
     WIRES Comput. Molec. Sci., 2018 8(1)1-6
     doi.org/10.1002/wcms.1327
  6. Neese,F.; Wennmohs,F.; Becker,U.; Riplinger,C.
     The ORCA quantum chemistry program package
     J. Chem. Phys., 2020 152 Art. No. L224108
     doi.org/10.1063/5.0004608

List of optional additional citations

  1. Neese,F.
     Approximate second-order SCF convergence for spin unrestricted wavefunctions
     Chem. Phys. Lett., 2000 325(1-3)93-98
     doi.org/10.1016/s0009-2614(00)00662-x

Timings for individual modules:

Sum of individual times          ...     4009.438 sec (=  66.824 min)
Startup calculation              ...       41.031 sec (=   0.684 min)   1.0 %
SCF iterations                   ...     2519.584 sec (=  41.993 min)  62.8 %
Property calculations            ...        0.127 sec (=   0.002 min)   0.0 %
SCF Gradient evaluation          ...     1448.576 sec (=  24.143 min)  36.1 %
Geometry relaxation              ...        0.120 sec (=   0.002 min)   0.0 %
                             ****ORCA TERMINATED NORMALLY****
TOTAL RUN TIME: 0 days 1 hours 6 minutes 51 seconds 97 msec
