
                                 *****************
                                 * O   R   C   A *
                                 *****************

                                            #,                                       
                                            ###                                      
                                            ####                                     
                                            #####                                    
                                            ######                                   
                                           ########,                                 
                                     ,,################,,,,,                         
                               ,,#################################,,                 
                          ,,##########################################,,             
                       ,#########################################, ''#####,          
                    ,#############################################,,   '####,        
                  ,##################################################,,,,####,       
                ,###########''''           ''''###############################       
              ,#####''   ,,,,##########,,,,          '''####'''          '####       
            ,##' ,,,,###########################,,,                        '##       
           ' ,,###''''                  '''############,,,                           
         ,,##''                                '''############,,,,        ,,,,,,###''
      ,#''                                            '''#######################'''  
     '                                                          ''''####''''         
             ,#######,   #######,   ,#######,      ##                                
            ,#'     '#,  ##    ##  ,#'     '#,    #''#        ,####,   ,####,        
            ##       ##  ##   ,#'  ##            #'  '#       #'       #'  '#        
            ##       ##  #######   ##           ,######,      #####,   #    #        
            '#,     ,#'  ##    ##  '#,     ,#' ,#      #,     #,   #   #,  ,#        
             '#######'   ##     ##  '#######'  #'      '#     '####' # '####'        



                #########################################################
                #                        -***-                          #
                #          Department of theory and spectroscopy        #
                #                                                       #
                #                      Frank Neese                      #
                #                                                       #
                #     Directorship, Architecture, Infrastructure        #
                #                    SHARK, DRIVERS                     #
                #        Core code/Algorithms in most modules           #
                #                                                       #
                #        Max Planck Institute fuer Kohlenforschung      #
                #                Kaiser Wilhelm Platz 1                 #
                #                 D-45470 Muelheim/Ruhr                 #
                #                      Germany                          #
                #                                                       #
                #                  All rights reserved                  #
                #                        -***-                          #
                #########################################################


                         Program Version 6.0.0  -   RELEASE   -


 With contributions from (in alphabetic order):
   Daniel Aravena         : Magnetic Suceptibility
   Michael Atanasov       : Ab Initio Ligand Field Theory (pilot matlab implementation)
   Alexander A. Auer      : GIAO ZORA, VPT2 properties, NMR spectrum
   Ute Becker             : All parallelization in ORCA, NUMFREQ, NUMCALC
   Giovanni Bistoni       : ED, misc. LED, open-shell LED, HFLD
   Martin Brehm           : Molecular dynamics
   Dmytro Bykov           : pre 5.0 version of the SCF Hessian
   Marcos Casanova-Páez   : Triplet and SCS-CIS(D). UHF-(DLPNO)-IP/EA/STEOM-CCSD. UHF-CVS-IP/STEOM-CCSD
   Vijay G. Chilkuri      : MRCI spin determinant printing, contributions to CSF-ICE
   Pauline Colinet        : FMM embedding
   Dipayan Datta          : RHF DLPNO-CCSD density
   Achintya Kumar Dutta   : EOM-CC, STEOM-CC
   Nicolas Foglia         : Exact transition moments, OPA infrastructure, MCD improvements
   Dmitry Ganyushin       : Spin-Orbit,Spin-Spin,Magnetic field MRCI
   Miquel Garcia          : C-PCM and meta-GGA Hessian, CCSD/C-PCM, Gaussian charge scheme
   Tiago L. C. Gouveia    : GS-ROHF, GS-ROCIS
   Yang Guo               : DLPNO-NEVPT2, F12-NEVPT2, CIM, IAO-localization
   Andreas Hansen         : Spin unrestricted coupled pair/coupled cluster methods
   Ingolf Harden          : AUTO-CI MPn and infrastructure 
   Benjamin Helmich-Paris : MC-RPA, TRAH-(SCF,CASSCF), AVAS, COSX integrals, SCF dyn. polar.
   Lee Huntington         : MR-EOM, pCC
   Robert Izsak           : Overlap fitted RIJCOSX, COSX-SCS-MP3, EOM
   Riya Kayal             : Wick's Theorem for AUTO-CI, AUTO-CI UHF-CCSDT
   Emily Kempfer          : AUTO-CI, RHF CISDT and CCSDT
   Christian Kollmar      : KDIIS, OOCD, Brueckner-CCSD(T), CCSD density, CASPT2, CASPT2-K, improved NEVPT2
   Axel Koslowski         : Symmetry handling
   Simone Kossmann        : Meta GGA functionals, TD-DFT gradient, OOMP2, (MP2 Hessian; deprecated post 5.0)
   Lucas Lang             : DCDCAS
   Marvin Lechner         : AUTO-CI (C++ implementation), FIC-MRCC
   Spencer Leger          : CASSCF response
   Dagmar Lenk            : GEPOL surface, SMD, ORCA-2-JSON
   Dimitrios Liakos       : Extrapolation schemes; Compound Job, initial MDCI parallelization
   Dimitrios Manganas     : Further ROCIS development; embedding schemes. LFT, Crystal Embedding
   Dimitrios Pantazis     : SARC Basis sets
   Anastasios Papadopoulos: AUTO-CI, single reference methods and gradients
   Taras Petrenko         : pre 6.0 DFT Hessian and TD-DFT gradient, (ASA, deprecated), ECA, 1-Electron XAS/XES, NRVS
   Peter Pinski           : DLPNO-MP2, DLPNO-MP2 Gradient
   Christoph Reimann      : Effective Core Potentials
   Marius Retegan         : Local ZFS, SOC
   Christoph Riplinger    : Optimizer, TS searches, QM/MM, DLPNO-CCSD(T), (RO)-DLPNO pert. Triples
   Michael Roemelt        : Original ROCIS implementation
   Masaaki Saitow         : Open-shell DLPNO-CCSD energy and density
   Barbara Sandhoefer     : DKH picture change effects
   Kantharuban Sivalingam : CASSCF convergence/infrastructure, NEVPT2 and variants, FIC-MRCI
   Bernardo de Souza      : ESD, SOC TD-DFT
   Georgi Stoychev        : AutoAux, RI-MP2 NMR, DLPNO-MP2 response, X2C
   Van Anh Tran           : RI-MP2 g-tensors
   Willem Van den Heuvel  : Paramagnetic NMR
   Zikuan Wang            : NOTCH, Electric field optimization 
   Frank Wennmohs         : Technical directorship and infrastructure
   Hang Xu                : AUTO-CI-Response properties 


 We gratefully acknowledge several colleagues who have allowed us to
 interface, adapt or use parts of their codes:
   Stefan Grimme, W. Hujo, H. Kruse, P. Pracht,  : VdW corrections, initial TS optimization,
                  C. Bannwarth, S. Ehlert,         DFT functionals, gCP, sTDA/sTD-DF
                  L. Wittmann, M. Mueller
   Ed Valeev, F. Pavosevic, A. Kumar             : LibInt (2-el integral package), F12 methods
   Garnet Chan, S. Sharma, J. Yang, R. Olivares  : DMRG
   Ulf Ekstrom                                   : XCFun DFT Library
   Mihaly Kallay                                 : mrcc  (arbitrary order and MRCC methods)
   Frank Weinhold                                : gennbo (NPA and NBO analysis)
   Simon Mueller                                 : openCOSMO-RS
   Christopher J. Cramer and Donald G. Truhlar   : smd solvation model
   Lars Goerigk                                  : TD-DFT with DH, B97 family of functionals
   V. Asgeirsson, H. Jonsson                     : NEB implementation
   FAccTs GmbH                                   : IRC, NEB, NEB-TS, DLPNO-Multilevel, CI-OPT
                                                   MM, QMMM, 2- and 3-layer-ONIOM, Crystal-QMMM,
                                                   LR-CPCM, SF, NACMEs, symmetry and pop. for TD-DFT,
                                                   nearIR, NL-DFT gradient (VV10), updates on ESD,
                                                   ML-optimized integration grids, MBIS, APM,
                                                   GOAT, DOCKER, SOLVATOR, interface openCOSMO-RS
   S Lehtola, MJT Oliveira, MAL Marques          : LibXC Library
   Liviu Ungur et al                             : ANISO software


 Your calculation uses the libint2 library for the computation of 2-el integrals
 For citations please refer to: http://libint.valeyev.net

 Your ORCA version has been built with support for libXC version: 6.2.2
 For citations please refer to: https://libxc.gitlab.io

 This ORCA versions uses:
   CBLAS   interface :  Fast vector & matrix operations
   LAPACKE interface :  Fast linear algebra routines
   Shared memory     :  Shared parallel matrices


Warning: RI is on but no J-basis has been assigned. Assigning Def2/J (nothing to worry about!)
================================================================================

----- Orbital basis set information -----
Your calculation utilizes the basis: def2-TZVP
   F. Weigend and R. Ahlrichs, Phys. Chem. Chem. Phys. 7, 3297 (2005).

----- AuxJ basis set information -----
Your calculation utilizes the auxiliary basis: def2/J
   F. Weigend, Phys. Chem. Chem. Phys. 8, 1057 (2006).

================================================================================
                                        WARNINGS
                       Please study these warnings very carefully!
================================================================================


WARNING: Geometry Optimization
  ===> : Switching off AutoStart
         For restart on a previous wavefunction, please use MOREAD

================================================================================
                                       INPUT FILE
================================================================================
NAME = Diclofenac\Diclofenac_TPSS_def2-TZVP\Diclofenac_TPSS_def2-TZVP.orcainp
|  1> # ORCA input file
|  2> # 
|  3> !TPSS def2-TZVP Opt CPCM(WATER)
|  4> * xyz 0 1
|  5>    O        3.20532         0.77222        -3.48165
|  6>    C        3.01992        -0.42363        -2.87260
|  7>    O        2.60439        -1.40765        -3.47515
|  8>    C        3.32048        -0.40706        -1.39156
|  9>    C        4.77373        -0.12881        -1.08244
| 10>    C        5.66943        -1.21342        -1.10651
| 11>    C        7.03233        -1.02123        -0.89021
| 12>    C        7.51453         0.25274        -0.62393
| 13>    C        6.63498         1.33431        -0.58478
| 14>    C        5.26576         1.17391        -0.86041
| 15>    N        4.37299         2.29124        -0.86707
| 16>    C        4.78516         3.66554        -0.98266
| 17>    C        5.63181         4.12934        -2.01264
| 18>   Cl        6.08405         3.13842        -3.35906
| 19>    C        6.11423         5.44479        -2.01214
| 20>    C        5.70652         6.34622        -1.03224
| 21>    C        4.79176         5.94154        -0.06385
| 22>    C        4.33591         4.61788        -0.04136
| 23>   Cl        3.21047         4.17011         1.19560
| 24>    H        3.58943         1.44889        -2.88309
| 25>    H        3.04405        -1.38942        -0.98093
| 26>    H        2.64728         0.30494        -0.90399
| 27>    H        5.30989        -2.22054        -1.31624
| 28>    H        7.71565        -1.86518        -0.93248
| 29>    H        8.57673         0.41196        -0.45771
| 30>    H        7.04962         2.31347        -0.36106
| 31>    H        3.79458         2.21395        -0.02113
| 32>    H        6.80603         5.77305        -2.78574
| 33>    H        6.08452         7.36622        -1.03898
| 34>    H        4.44479         6.65940         0.67650
| 35> *
| 36> 
| 37>                          ****END OF INPUT****
================================================================================

                       *****************************
                       * Geometry Optimization Run *
                       *****************************

Geometry optimization settings:
Update method            Update   .... BFGS
Choice of coordinates    CoordSys .... (2022) Redundant Internals
Initial Hessian          InHess   .... Almloef's Model
Max. no of cycles        MaxIter  .... 90

Convergence Tolerances:
Energy Change            TolE     ....  5.0000e-06 Eh
Max. Gradient            TolMAXG  ....  3.0000e-04 Eh/bohr
RMS Gradient             TolRMSG  ....  1.0000e-04 Eh/bohr
Max. Displacement        TolMAXD  ....  4.0000e-03 bohr
RMS Displacement         TolRMSD  ....  2.0000e-03 bohr
Strict Convergence                .... False

------------------------------------------------------------------------------
                        ORCA OPTIMIZATION COORDINATE SETUP
------------------------------------------------------------------------------

The optimization will be done in redundant internal coordinates (2022)
Making redundant internal coordinates   ...  (2022 redundants) done
Evaluating the initial hessian          ...  (Almloef) done
Evaluating the coordinates              ...  done
Calculating the B-matrix                .... done
Calculating the G-matrix                .... done
Diagonalizing the G-matrix              .... done
Small eigenvalue found = 5.495e-03
Small eigenvalue found = 1.592e-02
Small eigenvalue found = 2.020e-02
The first mode is                       ....   66
The number of degrees of freedom        ....   84

    -----------------------------------------------------------------
                    Redundant Internal Coordinates


    -----------------------------------------------------------------
         Definition                    Initial Value    Approx d2E/dq
    -----------------------------------------------------------------
      1. B(C   1,O   0)                  1.3548         0.636942   
      2. B(O   2,C   1)                  1.2264         1.020724   
      3. B(C   3,C   1)                  1.5113         0.400110   
      4. B(C   4,C   3)                  1.5116         0.399709   
      5. B(C   5,C   4)                  1.4069         0.587286   
      6. B(C   6,C   5)                  1.3933         0.617321   
      7. B(C   7,C   6)                  1.3880         0.629506   
      8. B(C   8,C   7)                  1.3946         0.614306   
      9. B(C   9,C   8)                  1.4059         0.589417   
     10. B(C   9,C   4)                  1.4101         0.580257   
     11. B(N  10,C   9)                  1.4302         0.482746   
     12. B(C  11,N  10)                  1.4394         0.466681   
     13. B(C  12,C  11)                  1.4117         0.577006   
     14. B(Cl 13,C  12)                  1.7318         0.399338   
     15. B(C  14,C  12)                  1.4011         0.599787   
     16. B(C  15,C  14)                  1.3925         0.619124   
     17. B(C  16,C  15)                  1.3922         0.619677   
     18. B(C  17,C  16)                  1.4001         0.601959   
     19. B(C  17,C  11)                  1.4124         0.575479   
     20. B(Cl 18,C  17)                  1.7312         0.400232   
     21. B(H  19,O   0)                  0.9817         0.480150   
     22. B(H  19,N  10)                  2.3212         0.003502   
     23. B(H  20,C   3)                  1.1000         0.347076   
     24. B(H  21,C   3)                  1.0945         0.354234   
     25. B(H  22,C   5)                  1.0897         0.360436   
     26. B(H  23,C   6)                  1.0867         0.364463   
     27. B(H  24,C   7)                  1.0869         0.364288   
     28. B(H  25,C   8)                  1.0866         0.364606   
     29. B(H  26,N  10)                  1.0277         0.405482   
     30. B(H  26,Cl 18)                  2.3766         0.007157   
     31. B(H  27,C  14)                  1.0885         0.362110   
     32. B(H  28,C  15)                  1.0878         0.363009   
     33. B(H  29,C  16)                  1.0880         0.362703   
     34. A(C   1,O   0,H  19)          112.8226         0.366784   
     35. A(O   0,C   1,O   2)          122.2589         0.471280   
     36. A(O   0,C   1,C   3)          113.8073         0.400825   
     37. A(O   2,C   1,C   3)          123.8939         0.435950   
     38. A(C   4,C   3,H  20)          109.2471         0.325964   
     39. A(C   4,C   3,H  21)          112.3646         0.327061   
     40. A(C   1,C   3,H  20)          107.8210         0.326018   
     41. A(C   1,C   3,H  21)          108.7456         0.327115   
     42. A(H  20,C   3,H  21)          105.0755         0.288421   
     43. A(C   1,C   3,C   4)          113.1797         0.371943   
     44. A(C   5,C   4,C   9)          119.5227         0.424785   
     45. A(C   3,C   4,C   9)          122.5281         0.396779   
     46. A(C   3,C   4,C   5)          117.8192         0.397619   
     47. A(C   4,C   5,C   6)          120.9164         0.429524   
     48. A(C   6,C   5,H  22)          118.6918         0.352706   
     49. A(C   4,C   5,H  22)          120.3798         0.349746   
     50. A(C   5,C   6,C   7)          119.7515         0.434917   
     51. A(C   5,C   6,H  23)          120.1269         0.353370   
     52. A(C   7,C   6,H  23)          120.1213         0.354542   
     53. A(C   8,C   7,H  24)          119.8986         0.353049   
     54. A(C   6,C   7,H  24)          120.2214         0.354513   
     55. A(C   6,C   7,C   8)          119.8759         0.434534   
     56. A(C   7,C   8,C   9)          121.3491         0.429426   
     57. A(C   9,C   8,H  25)          120.9853         0.350640   
     58. A(C   7,C   8,H  25)          117.6432         0.353101   
     59. A(C   8,C   9,N  10)          121.3141         0.408701   
     60. A(C   4,C   9,N  10)          120.2110         0.407570   
     61. A(C   4,C   9,C   8)          118.4311         0.425061   
     62. A(C   9,N  10,C  11)          124.5774         0.389750   
     63. A(C   9,N  10,H  26)          106.7825         0.340099   
     64. A(C  11,N  10,H  26)          107.4016         0.338183   
     65. A(C  12,C  11,C  17)          117.0973         0.422821   
     66. A(N  10,C  11,C  17)          119.9453         0.404548   
     67. A(N  10,C  11,C  12)          122.9571         0.404737   
     68. A(Cl 13,C  12,C  14)          116.5871         0.416913   
     69. A(C  11,C  12,C  14)          120.9775         0.425961   
     70. A(C  11,C  12,Cl 13)          122.4030         0.414052   
     71. A(C  15,C  14,H  27)          119.4061         0.353157   
     72. A(C  12,C  14,H  27)          120.1134         0.351267   
     73. A(C  12,C  14,C  15)          120.4783         0.431377   
     74. A(C  16,C  15,H  28)          120.3428         0.353359   
     75. A(C  14,C  15,H  28)          120.0595         0.353305   
     76. A(C  14,C  15,C  16)          119.5831         0.433915   
     77. A(C  15,C  16,H  29)          119.4092         0.353308   
     78. A(C  15,C  16,C  17)          119.9922         0.431727   
     79. A(C  17,C  16,H  29)          120.5961         0.351579   
     80. A(C  16,C  17,Cl 18)          117.8813         0.417348   
     81. A(C  11,C  17,Cl 18)          120.5682         0.414021   
     82. A(C  11,C  17,C  16)          121.5462         0.426035   
     83. D(C   3,C   1,O   0,H  19)      5.4575         0.029886   
     84. D(O   2,C   1,O   0,H  19)   -176.7577         0.029886   
     85. D(C   4,C   3,C   1,O   0)    -64.5811         0.011880   
     86. D(H  21,C   3,C   1,O   0)     61.0391         0.011880   
     87. D(H  20,C   3,C   1,O   2)     -3.2758         0.011880   
     88. D(H  20,C   3,C   1,O   0)    174.4674         0.011880   
     89. D(C   4,C   3,C   1,O   2)    117.6757         0.011880   
     90. D(C   5,C   4,C   3,H  21)    152.1542         0.011858   
     91. D(C   9,C   4,C   3,H  20)   -148.2199         0.011858   
     92. D(C   9,C   4,C   3,C   1)     91.6388         0.011858   
     93. D(C   5,C   4,C   3,H  20)     35.9509         0.011858   
     94. D(C   5,C   4,C   3,C   1)    -84.1904         0.011858   
     95. D(H  22,C   5,C   4,C   3)     -1.5999         0.023725   
     96. D(C   6,C   5,C   4,C   3)    177.1212         0.023725   
     97. D(C   6,C   5,C   4,C   9)      1.1621         0.023725   
     98. D(H  22,C   5,C   4,C   9)   -177.5589         0.023725   
     99. D(H  23,C   6,C   5,H  22)      0.0370         0.026356   
    100. D(H  23,C   6,C   5,C   4)   -178.7053         0.026356   
    101. D(C   7,C   6,C   5,H  22)    179.8719         0.026356   
    102. D(C   7,C   6,C   5,C   4)      1.1297         0.026356   
    103. D(H  24,C   7,C   6,H  23)      0.0644         0.027473   
    104. D(H  24,C   7,C   6,C   5)   -179.7706         0.027473   
    105. D(C   8,C   7,C   6,H  23)    179.3269         0.027473   
    106. D(C   8,C   7,C   6,C   5)     -0.5081         0.027473   
    107. D(H  25,C   8,C   7,H  24)     -1.4733         0.026084   
    108. D(H  25,C   8,C   7,C   6)    179.2618         0.026084   
    109. D(C   9,C   8,C   7,H  24)    176.8201         0.026084   
    110. D(C   9,C   8,C   7,C   6)     -2.4448         0.026084   
    111. D(N  10,C   9,C   4,C   3)      2.6341         0.023133   
    112. D(C   8,C   9,C   4,C   5)     -3.9796         0.023133   
    113. D(C   8,C   9,C   4,C   3)   -179.7404         0.023133   
    114. D(N  10,C   9,C   8,H  25)      0.5064         0.023906   
    115. D(N  10,C   9,C   8,C   7)   -177.7301         0.023906   
    116. D(C   4,C   9,C   8,H  25)   -177.0918         0.023906   
    117. D(C   4,C   9,C   8,C   7)      4.6717         0.023906   
    118. D(N  10,C   9,C   4,C   5)    178.3949         0.023133   
    119. D(H  26,N  10,C   9,C   8)   -107.4504         0.019940   
    120. D(H  26,N  10,C   9,C   4)     70.1055         0.019940   
    121. D(C  11,N  10,C   9,C   8)     18.5125         0.019940   
    122. D(C  11,N  10,C   9,C   4)   -163.9316         0.019940   
    123. D(C  17,C  11,N  10,H  26)     -2.2690         0.018602   
    124. D(C  17,C  11,N  10,C   9)   -127.9682         0.018602   
    125. D(C  12,C  11,N  10,H  26)    177.9402         0.018602   
    126. D(C  12,C  11,N  10,C   9)     52.2409         0.018602   
    127. D(C  14,C  12,C  11,C  17)      6.5887         0.022863   
    128. D(C  14,C  12,C  11,N  10)   -173.6148         0.022863   
    129. D(Cl 13,C  12,C  11,C  17)   -171.2697         0.022863   
    130. D(Cl 13,C  12,C  11,N  10)      8.5267         0.022863   
    131. D(H  27,C  14,C  12,Cl 13)     -5.0999         0.024799   
    132. D(H  27,C  14,C  12,C  11)    176.9220         0.024799   
    133. D(C  15,C  14,C  12,Cl 13)    174.3526         0.024799   
    134. D(C  15,C  14,C  12,C  11)     -3.6256         0.024799   
    135. D(H  28,C  15,C  14,H  27)     -0.4765         0.026520   
    136. D(H  28,C  15,C  14,C  12)   -179.9328         0.026520   
    137. D(C  16,C  15,C  14,H  27)    178.1377         0.026520   
    138. D(C  16,C  15,C  14,C  12)     -1.3186         0.026520   
    139. D(H  29,C  16,C  15,H  28)      1.0447         0.026570   
    140. D(H  29,C  16,C  15,C  14)   -177.5655         0.026570   
    141. D(C  17,C  16,C  15,H  28)   -178.3772         0.026570   
    142. D(C  17,C  16,C  15,C  14)      3.0125         0.026570   
    143. D(Cl 18,C  17,C  11,N  10)     -3.9322         0.022737   
    144. D(C  16,C  17,C  11,C  12)     -4.9004         0.022737   
    145. D(C  16,C  17,C  11,N  10)    175.2967         0.022737   
    146. D(Cl 18,C  17,C  16,H  29)      0.0162         0.024989   
    147. D(Cl 18,C  17,C  16,C  15)    179.4312         0.024989   
    148. D(C  11,C  17,C  16,H  29)   -179.2326         0.024989   
    149. D(C  11,C  17,C  16,C  15)      0.1823         0.024989   
    150. D(Cl 18,C  17,C  11,C  12)    175.8707         0.022737   
    -----------------------------------------------------------------

Number of atoms                         .... 30
Number of degrees of freedom            .... 150


         *************************************************************
         *                GEOMETRY OPTIMIZATION CYCLE   1            *
         *************************************************************
---------------------------------
CARTESIAN COORDINATES (ANGSTROEM)
---------------------------------
  O      3.205320    0.772220   -3.481650
  C      3.019920   -0.423630   -2.872600
  O      2.604390   -1.407650   -3.475150
  C      3.320480   -0.407060   -1.391560
  C      4.773730   -0.128810   -1.082440
  C      5.669430   -1.213420   -1.106510
  C      7.032330   -1.021230   -0.890210
  C      7.514530    0.252740   -0.623930
  C      6.634980    1.334310   -0.584780
  C      5.265760    1.173910   -0.860410
  N      4.372990    2.291240   -0.867070
  C      4.785160    3.665540   -0.982660
  C      5.631810    4.129340   -2.012640
  Cl     6.084050    3.138420   -3.359060
  C      6.114230    5.444790   -2.012140
  C      5.706520    6.346220   -1.032240
  C      4.791760    5.941540   -0.063850
  C      4.335910    4.617880   -0.041360
  Cl     3.210470    4.170110    1.195600
  H      3.589430    1.448890   -2.883090
  H      3.044050   -1.389420   -0.980930
  H      2.647280    0.304940   -0.903990
  H      5.309890   -2.220540   -1.316240
  H      7.715650   -1.865180   -0.932480
  H      8.576730    0.411960   -0.457710
  H      7.049620    2.313470   -0.361060
  H      3.794580    2.213950   -0.021130
  H      6.806030    5.773050   -2.785740
  H      6.084520    7.366220   -1.038980
  H      4.444790    6.659400    0.676500

----------------------------
CARTESIAN COORDINATES (A.U.)
----------------------------
  NO LB      ZA    FRAG     MASS         X           Y           Z
   0 O     8.0000    0    15.999    6.057177    1.459284   -6.579365
   1 C     6.0000    0    12.011    5.706822   -0.800545   -5.428427
   2 O     8.0000    0    15.999    4.921584   -2.660073   -6.567082
   3 C     6.0000    0    12.011    6.274798   -0.769232   -2.629667
   4 C     6.0000    0    12.011    9.021042   -0.243416   -2.045515
   5 C     6.0000    0    12.011   10.713670   -2.293031   -2.091001
   6 C     6.0000    0    12.011   13.289178   -1.929845   -1.682253
   7 C     6.0000    0    12.011   14.200404    0.477609   -1.179057
   8 C     6.0000    0    12.011   12.538295    2.521480   -1.105074
   9 C     6.0000    0    12.011    9.950844    2.218368   -1.625939
  10 N     7.0000    0    14.007    8.263753    4.329816   -1.638525
  11 C     6.0000    0    12.011    9.042642    6.926867   -1.856958
  12 C     6.0000    0    12.011   10.642579    7.803322   -3.803338
  13 Cl   17.0000    0    35.453   11.497188    5.930754   -6.347703
  14 C     6.0000    0    12.011   11.554220   10.289162   -3.802394
  15 C     6.0000    0    12.011   10.783760   11.992618   -1.950651
  16 C     6.0000    0    12.011    9.055114   11.227883   -0.120659
  17 C     6.0000    0    12.011    8.193682    8.726529   -0.078159
  18 Cl   17.0000    0    35.453    6.066909    7.880366    2.259357
  19 H     1.0000    0     1.008    6.783040    2.738005   -5.448251
  20 H     1.0000    0     1.008    5.752421   -2.625623   -1.853689
  21 H     1.0000    0     1.008    5.002634    0.576253   -1.708294
  22 H     1.0000    0     1.008   10.034238   -4.196212   -2.487333
  23 H     1.0000    0     1.008   14.580465   -3.524679   -1.762132
  24 H     1.0000    0     1.008   16.207671    0.778492   -0.864947
  25 H     1.0000    0     1.008   13.321851    4.371825   -0.682305
  26 H     1.0000    0     1.008    7.170717    4.183759   -0.039930
  27 H     1.0000    0     1.008   12.861533   10.909483   -5.264286
  28 H     1.0000    0     1.008   11.498076   13.920138   -1.963388
  29 H     1.0000    0     1.008    8.399436   12.584442    1.278400

--------------------------------
INTERNAL COORDINATES (ANGSTROEM)
--------------------------------
 O      0   0   0     0.000000000000     0.00000000     0.00000000
 C      1   0   0     1.354759124346     0.00000000     0.00000000
 O      2   1   0     1.226387803185   122.25886070     0.00000000
 C      2   1   3     1.511320733696   113.80731677   182.21517733
 C      4   2   1     1.511593132890   113.17973868   295.41889602
 C      5   4   2     1.406853477445   117.81917752   275.80959513
 C      6   5   4     1.393276388984   120.91640178   177.12116677
 C      7   6   5     1.387955849190   119.75151965     1.12972456
 C      8   7   6     1.394609117244   119.87585761   359.49189910
 C      9   8   7     1.405867513424   121.34909130   357.55522682
 N     10   9   8     1.430212906318   121.31409752   182.26987130
 C     11  10   9     1.439425457257   124.57742099    18.51254303
 C     12  11  10     1.411660533875   122.95710227    52.24088466
 Cl    13  12  11     1.731845917049   122.40300131     8.52670708
 C     13  12  11     1.401120269249   120.97751612   186.38520438
 C     15  13  12     1.392482495043   120.47830003   356.37438051
 C     16  15  13     1.392239545517   119.58306033   358.68141614
 C     17  16  15     1.400135999894   119.99215386     3.01253646
 Cl    18  17  16     1.731237478828   117.88126431   179.43119454
 H      1   2   3     0.981680627597   112.82262353   183.24233414
 H      4   2   1     1.100028050279   107.82103038   174.46741659
 H      4   2   1     1.094470988606   108.74559446    61.03913464
 H      6   5   4     1.089746015776   120.37979839   358.40012770
 H      7   6   5     1.086721941345   120.12693205   181.29474095
 H      8   7   6     1.086852766846   120.22144722   180.22944026
 H      9   8   7     1.086614592945   117.64318796   179.26184483
 H     11  10   9     1.027689814973   106.78254679   252.54963810
 H     15  13  12     1.088484647388   120.11337558   176.92196454
 H     16  15  13     1.087809462912   120.05950006   180.06718666
 H     17  16  15     1.088039191849   119.40919265   182.43445238

---------------------------
INTERNAL COORDINATES (A.U.)
---------------------------
 O      0   0   0     0.000000000000     0.00000000     0.00000000
 C      1   0   0     2.560123722446     0.00000000     0.00000000
 O      2   1   0     2.317537082000   122.25886070     0.00000000
 C      2   1   3     2.855982287203   113.80731677   182.21517733
 C      4   2   1     2.856497047078   113.17973868   295.41889602
 C      5   4   2     2.658567782926   117.81917752   275.80959513
 C      6   5   4     2.632910804038   120.91640178   177.12116677
 C      7   6   5     2.622856440943   119.75151965     1.12972456
 C      8   7   6     2.635429295461   119.87585761   359.49189910
 C      9   8   7     2.656704580948   121.34909130   357.55522682
 N     10   9   8     2.702710706142   121.31409752   182.26987130
 C     11  10   9     2.720119904410   124.57742099    18.51254303
 C     12  11  10     2.667651803089   122.95710227    52.24088466
 Cl    13  12  11     3.272714489373   122.40300131     8.52670708
 C     13  12  11     2.647733589566   120.97751612   186.38520438
 C     15  13  12     2.631410561910   120.47830003   356.37438051
 C     16  15  13     2.630951453841   119.58306033   358.68141614
 C     17  16  15     2.645873590044   119.99215386     3.01253646
 Cl    18  17  16     3.271564707766   117.88126431   179.43119454
 H      1   2   3     1.855107537135   112.82262353   183.24233414
 H      4   2   1     2.078751754658   107.82103038   174.46741659
 H      4   2   1     2.068250429987   108.74559446    61.03913464
 H      6   5   4     2.059321525349   120.37979839   358.40012770
 H      7   6   5     2.053606852865   120.12693205   181.29474095
 H      8   7   6     2.053854077233   120.22144722   180.22944026
 H      9   8   7     2.053403993787   117.64318796   179.26184483
 H     11  10   9     1.942052300920   106.78254679   252.54963810
 H     15  13  12     2.056937884542   120.11337558   176.92196454
 H     16  15  13     2.055661970791   120.05950006   180.06718666
 H     17  16  15     2.056096095568   119.40919265   182.43445238

---------------------
BASIS SET INFORMATION
---------------------
There are 5 groups of distinct atoms

 Group   1 Type O   : 11s6p2d1f contracted to 5s3p2d1f pattern {62111/411/11/1}
 Group   2 Type C   : 11s6p2d1f contracted to 5s3p2d1f pattern {62111/411/11/1}
 Group   3 Type N   : 11s6p2d1f contracted to 5s3p2d1f pattern {62111/411/11/1}
 Group   4 Type Cl  : 14s9p3d1f contracted to 5s5p2d1f pattern {73211/51111/21/1}
 Group   5 Type H   : 5s1p contracted to 3s1p pattern {311/1}

Atom   0O    basis set group =>   1
Atom   1C    basis set group =>   2
Atom   2O    basis set group =>   1
Atom   3C    basis set group =>   2
Atom   4C    basis set group =>   2
Atom   5C    basis set group =>   2
Atom   6C    basis set group =>   2
Atom   7C    basis set group =>   2
Atom   8C    basis set group =>   2
Atom   9C    basis set group =>   2
Atom  10N    basis set group =>   3
Atom  11C    basis set group =>   2
Atom  12C    basis set group =>   2
Atom  13Cl   basis set group =>   4
Atom  14C    basis set group =>   2
Atom  15C    basis set group =>   2
Atom  16C    basis set group =>   2
Atom  17C    basis set group =>   2
Atom  18Cl   basis set group =>   4
Atom  19H    basis set group =>   5
Atom  20H    basis set group =>   5
Atom  21H    basis set group =>   5
Atom  22H    basis set group =>   5
Atom  23H    basis set group =>   5
Atom  24H    basis set group =>   5
Atom  25H    basis set group =>   5
Atom  26H    basis set group =>   5
Atom  27H    basis set group =>   5
Atom  28H    basis set group =>   5
Atom  29H    basis set group =>   5
---------------------------------
AUXILIARY/J BASIS SET INFORMATION
---------------------------------
There are 5 groups of distinct atoms

 Group   1 Type O   : 12s5p4d2f1g contracted to 6s4p3d1f1g pattern {711111/2111/211/2/1}
 Group   2 Type C   : 12s5p4d2f1g contracted to 6s4p3d1f1g pattern {711111/2111/211/2/1}
 Group   3 Type N   : 12s5p4d2f1g contracted to 6s4p3d1f1g pattern {711111/2111/211/2/1}
 Group   4 Type Cl  : 14s5p5d2f1g contracted to 8s4p3d1f1g pattern {71111111/2111/311/2/1}
 Group   5 Type H   : 5s2p1d contracted to 3s1p1d pattern {311/2/1}

Atom   0O    basis set group =>   1
Atom   1C    basis set group =>   2
Atom   2O    basis set group =>   1
Atom   3C    basis set group =>   2
Atom   4C    basis set group =>   2
Atom   5C    basis set group =>   2
Atom   6C    basis set group =>   2
Atom   7C    basis set group =>   2
Atom   8C    basis set group =>   2
Atom   9C    basis set group =>   2
Atom  10N    basis set group =>   3
Atom  11C    basis set group =>   2
Atom  12C    basis set group =>   2
Atom  13Cl   basis set group =>   4
Atom  14C    basis set group =>   2
Atom  15C    basis set group =>   2
Atom  16C    basis set group =>   2
Atom  17C    basis set group =>   2
Atom  18Cl   basis set group =>   4
Atom  19H    basis set group =>   5
Atom  20H    basis set group =>   5
Atom  21H    basis set group =>   5
Atom  22H    basis set group =>   5
Atom  23H    basis set group =>   5
Atom  24H    basis set group =>   5
Atom  25H    basis set group =>   5
Atom  26H    basis set group =>   5
Atom  27H    basis set group =>   5
Atom  28H    basis set group =>   5
Atom  29H    basis set group =>   5
------------------------------------------------------------------------------
                             ORCA STARTUP CALCULATIONS
                           -- RI-GTO INTEGRALS CHOSEN --
------------------------------------------------------------------------------
------------------------------------------------------------------------------
                   ___                                                        
                  /   \      - P O W E R E D   B Y -                         
                 /     \                                                     
                 |  |  |   _    _      __       _____    __    __             
                 |  |  |  | |  | |    /  \     |  _  \  |  |  /  |          
                  \  \/   | |  | |   /    \    | | | |  |  | /  /          
                 / \  \   | |__| |  /  /\  \   | |_| |  |  |/  /          
                |  |  |   |  __  | /  /__\  \  |    /   |      \           
                |  |  |   | |  | | |   __   |  |    \   |  |\   \          
                \     /   | |  | | |  |  |  |  | |\  \  |  | \   \       
                 \___/    |_|  |_| |__|  |__|  |_| \__\ |__|  \__/        
                                                                              
                      - O R C A' S   B I G   F R I E N D -                    
                                      &                                       
                       - I N T E G R A L  F E E D E R -                       
                                                                              
 v1 FN, 2020, v2 2021, v3 2022-2024                                           
------------------------------------------------------------------------------


----------------------
SHARK INTEGRAL PACKAGE
----------------------

Number of atoms                             ...     30
Number of basis functions                   ...    667
Number of shells                            ...    257
Maximum angular momentum                    ...      3
Integral batch strategy                     ... SHARK/LIBINT Hybrid
RI-J (if used) integral strategy            ... SPLIT-RIJ (Revised 2003 algorithm where possible)
Printlevel                                  ...      1
Contraction scheme used                     ... SEGMENTED contraction
Prescreening option                         ... SCHWARTZ
   Thresh                                   ... 2.500e-11
   Tcut                                     ... 2.500e-12
   Tpresel                                  ... 2.500e-12 
Coulomb Range Separation                    ... NOT USED
Exchange Range Separation                   ... NOT USED
Multipole approximations                    ... NOT USED
Finite Nucleus Model                        ... NOT USED
CABS basis                                  ... NOT available
Auxiliary Coulomb fitting basis             ... AVAILABLE
   # of basis functions in Aux-J            ...   1056
   # of shells in Aux-J                     ...    344
   Maximum angular momentum in Aux-J        ...      4
Auxiliary J/K fitting basis                 ... NOT available
Auxiliary Correlation fitting basis         ... NOT available
Auxiliary 'external' fitting basis          ... NOT available

Checking pre-screening integrals            ... done (  0.0 sec) Dimension = 257
Check shell pair data                       ... done (  0.0 sec)
Shell pair information
Shell pair cut-off parameter TPreSel        ...   2.5e-12
Total number of shell pairs                 ...     33153
Shell pairs after pre-screening             ...     24861
Total number of primitive shell pairs       ...    106509
Primitive shell pairs kept                  ...     53030
          la=0 lb=0:   5898 shell pairs
          la=1 lb=0:   7109 shell pairs
          la=1 lb=1:   2162 shell pairs
          la=2 lb=0:   3570 shell pairs
          la=2 lb=1:   2175 shell pairs
          la=2 lb=2:    571 shell pairs
          la=3 lb=0:   1678 shell pairs
          la=3 lb=1:   1038 shell pairs
          la=3 lb=2:    525 shell pairs
          la=3 lb=3:    135 shell pairs

Calculating one electron integrals          ... done (  0.1 sec)
Calculating RI/J V-Matrix + Cholesky decomp.... done (  0.0 sec)
Calculating Nuclear repulsion               ... done (  0.0 sec) ENN=   1645.217004874859 Eh

Diagonalization of the overlap matrix:
Smallest eigenvalue                        ... 6.062e-06
Time for diagonalization                   ...    0.031 sec
Threshold for overlap eigenvalues          ... 1.000e-07
Number of eigenvalues below threshold      ... 0
Time for construction of square roots      ...    0.022 sec
Total time needed                          ...    0.055 sec

-------------------
DFT GRID GENERATION
-------------------

General Integration Accuracy     IntAcc      ... 4.388
Radial Grid Type                 RadialGrid  ... OptM3 with GC (2021)
Angular Grid (max. ang.)         AngularGrid ... 4 (Lebedev-302)
Angular grid pruning method      GridPruning ... 4 (adaptive)
Weight generation scheme         WeightScheme... mBecke (2022)
Basis function cutoff            BFCut       ... 1.0000e-11
Integration weight cutoff        WCut        ... 1.0000e-14
Partially contracted basis set               ... off
Rotationally invariant grid construction     ... off
Angular grids for H and He will be reduced by one unit

Total number of grid points                  ...   151316
Total number of batches                      ...     2383
Average number of points per batch           ...       63
Average number of grid points per atom       ...     5044
Initializing property integral containers    ... done (  0.0 sec)

SHARK setup successfully completed in   1.6 seconds

Maximum memory used throughout the entire STARTUP-calculation: 115.1 MB
-------------------------------------------------------------------------------
                                 ORCA GUESS
                   Start orbitals & Density for SCF / CASSCF
-------------------------------------------------------------------------------

------------
SCF SETTINGS
------------
Hamiltonian:
 Density Functional     Method          .... DFT(GTOs)
 Exchange Functional    Exchange        .... TPSS
 Correlation Functional Correlation     .... TPSS
 LDA part of GGA corr.  LDAOpt          .... PW91-LDA
 Gradients option       PostSCFGGA      .... off
   NL short-range parameter             ....  5.000000
 RI-approximation to the Coulomb term is turned on
   Number of AuxJ basis functions       .... 1056


General Settings:
 Integral files         IntName         .... Diclofenac\Diclofenac_TPSS_def2-TZVP\Diclofenac_TPSS_def2-TZVP.orcainp
 Hartree-Fock type      HFTyp           .... RHF
 Total Charge           Charge          ....    0
 Multiplicity           Mult            ....    1
 Number of Electrons    NEL             ....  152
 Basis Dimension        Dim             ....  667
 Nuclear Repulsion      ENuc            ....   1645.2170048749 Eh

Convergence Acceleration:
 AO-DIIS                CNVDIIS         .... on
   Start iteration      DIISMaxIt       ....    12
   Startup error        DIISStart       ....  0.200000
   # of expansion vecs  DIISMaxEq       ....     5
   Bias factor          DIISBfac        ....   1.050
   Max. coefficient     DIISMaxC        ....  10.000
 MO-DIIS                CNVKDIIS        .... off
 Trust-Rad. Augm. Hess. CNVTRAH         .... auto
   Auto Start mean grad. ratio tolernc. ....  1.125000
   Auto Start start iteration           ....    50
   Auto Start num. interpolation iter.  ....    10
   Max. Number of Micro iterations      ....    24
   Max. Number of Macro iterations      .... Maxiter - #DIIS iter
   Number of Davidson start vectors     ....     2
   Converg. threshold    (grad. norm)   ....   1.000e-05
   Grad. Scal. Fac. for Micro threshold ....   0.100
   Minimum threshold for Micro iter.    ....   1.000e-02
   NR start threshold (gradient norm)   ....   1.000e-04
   Initial trust radius                 ....   0.400
   Minimum AH scaling param. (alpha)    ....   1.000
   Maximum AH scaling param. (alpha)    .... 1000.000
   Quad. conv. algorithm                .... NR
   White noise on init. David. guess    .... on
   Maximum white noise                  ....   0.010
   Pseudo random numbers                .... off
   Inactive MOs                         .... canonical
   Orbital update algorithm             .... Taylor
   Preconditioner                       .... Diag
   Full preconditioner red. dimension   ....   250
 SOSCF                  CNVSOSCF        .... on
   Start iteration      SOSCFMaxIt      ....   150
   Startup grad/error   SOSCFStart      ....  0.003300
   Hessian update       SOSCFHessUp     .... L-BFGS
 Level Shifting         CNVShift        .... on
   Level shift para.    LevelShift      ....    0.2500
   Turn off err/grad.   ShiftErr        ....    0.0010
 Zerner damping         CNVZerner       .... off
 Static damping         CNVDamp         .... on
   Fraction old density DampFac         ....    0.7000
   Max. Damping (<1)    DampMax         ....    0.9800
   Min. Damping (>=0)   DampMin         ....    0.0000
   Turn off err/grad.   DampErr         ....    0.1000

SCF Procedure:
 Maximum # iterations   MaxIter         ....   125
 SCF integral mode      SCFMode         .... Direct
   Integral package                     .... SHARK and LIBINT hybrid scheme
 Reset frequency        DirectResetFreq ....    20
 Integral Threshold     Thresh          ....  2.500e-11 Eh
 Primitive CutOff       TCut            ....  2.500e-12 Eh

Convergence Tolerance:
 Convergence Check Mode ConvCheckMode   .... Total+1el-Energy
 Convergence forced     ConvForced      .... 0
 Energy Change          TolE            ....  1.000e-08 Eh
 1-El. energy change                    ....  1.000e-05 Eh
 Orbital Gradient       TolG            ....  1.000e-05
 Orbital Rotation angle TolX            ....  1.000e-05
 DIIS Error             TolErr          ....  5.000e-07

------------------------------
INITIAL GUESS: MODEL POTENTIAL
------------------------------
Loading Hartree-Fock densities                     ... done
Calculating cut-offs                               ... done
Initializing the effective Hamiltonian             ... done
Setting up the integral package (SHARK)            ... done
Starting the Coulomb interaction                   ... done (   0.8 sec)
Making the grid                                    ... done (   0.3 sec)
Mapping shells                                     ... done
Starting the XC term evaluation                    ... done (   1.0 sec)
  promolecular density results
     # of electrons  =    151.997743842
     EX              =   -152.479502903
     EC              =     -5.314696449
     EX+EC           =   -157.794199352
Transforming the Hamiltonian                       ... done (   0.0 sec)
Diagonalizing the Hamiltonian                      ... done (   0.0 sec)
Back transforming the eigenvectors                 ... done (   0.0 sec)
Now organizing SCF variables                       ... done
                      ------------------
                      INITIAL GUESS DONE (   2.3 sec)
                      ------------------
             **** ENERGY FILE WAS UPDATED (Diclofenac\Diclofenac_TPSS_def2-TZVP\Diclofenac_TPSS_def2-TZVP.orcainp.en.tmp) ****
Finished Guess after   2.4 sec
Maximum memory used throughout the entire GUESS-calculation: 85.9 MB

-------------------------------------------------------------------------------------------
                                      ORCA LEAN-SCF
                              memory conserving SCF solver
-------------------------------------------------------------------------------------------

--------------------
CPCM SOLVATION MODEL
--------------------
CPCM parameters:
  Epsilon                                         ...      80.1510
  Refrac                                          ...       1.3328
  Rsolv                                           ...       1.3000
  Surface type                                    ... GAUSSIAN VDW
  Discretization scheme                           ... Constant charge density
    Threshold for H atoms                         ...       5.0000 (charges/Ang^2)
    Threshold for non-H atoms                     ...       5.0000 (charges/Ang^2)
  Epsilon function type                           ...         CPCM
Solvent:                                          ... WATER
Radii:
  Scheme                                          ... Element-dependent radii
  Radius for O  used is    3.4469 Bohr (=   1.8240 Ang.)
  Radius for C  used is    3.8550 Bohr (=   2.0400 Ang.)
  Radius for N  used is    3.5149 Bohr (=   1.8600 Ang.)
  Radius for Cl used is    3.9684 Bohr (=   2.1000 Ang.)
  Radius for H  used is    2.4944 Bohr (=   1.3200 Ang.)
Calculating surface                               ...        done! (  0.0s)
Cavity surface points                             ...         2854
Cavity Volume                                     ...    2166.3234
Cavity Surface-area                               ...    1096.9655
Calculating surface distance matrix               ...        done! (  0.0s)
Performing Cholesky decomposition & store         ...        done! (  0.2s)
Overall time for CPCM initialization              ...                 0.2s

----------------------------------------D-I-I-S--------------------------------------------
Iteration    Energy (Eh)           Delta-E    RMSDP     MaxDP     DIISErr   Damp  Time(sec)
-------------------------------------------------------------------------------------------
               ***  Starting incremental Fock matrix formation  ***
    1    -1665.8233724081694618     0.00e+00  1.43e-03  2.02e-01  2.71e-01  0.700  11.3
    2    -1666.0134951865868516    -1.90e-01  1.16e-03  1.73e-01  8.75e-02  0.700   9.6
                               ***Turning on AO-DIIS***
    3    -1666.0784213520225876    -6.49e-02  5.25e-04  3.97e-02  2.99e-02  0.700   9.4
    4    -1666.1187913372734783    -4.04e-02  9.92e-04  4.47e-02  1.44e-02  0.000   8.9
    5    -1666.2098568387093565    -9.11e-02  2.97e-04  4.65e-02  7.90e-03  0.000   9.1
                              *** Initializing SOSCF ***
---------------------------------------S-O-S-C-F--------------------------------------
Iteration    Energy (Eh)           Delta-E    RMSDP     MaxDP     MaxGrad    Time(sec)
--------------------------------------------------------------------------------------
    6    -1666.2106883056078459    -8.31e-04  1.15e-04  9.57e-03  3.08e-03     8.5
               *** Restarting incremental Fock matrix formation ***
    7    -1666.2107611230474049    -7.28e-05  9.80e-05  1.23e-02  4.88e-04    11.0
    8    -1666.2107191848842831     4.19e-05  3.46e-05  4.75e-03  1.41e-03     7.7
    9    -1666.2107767685358795    -5.76e-05  1.29e-05  6.31e-04  5.24e-05     7.4
   10    -1666.2107763848164268     3.84e-07  3.73e-06  2.31e-04  9.78e-05     7.0
   11    -1666.2107771127682554    -7.28e-07  7.15e-06  5.24e-04  3.76e-05     6.8
   12    -1666.2107770892355347     2.35e-08  3.20e-06  1.87e-04  3.52e-05     6.8
   13    -1666.2107771727562522    -8.35e-08  4.34e-06  3.16e-04  6.97e-06     6.6
   14    -1666.2107771776220488    -4.87e-09  1.82e-06  1.10e-04  1.08e-05     6.4
                 **** Energy Check signals convergence ****

               *****************************************************
               *                     SUCCESS                       *
               *           SCF CONVERGED AFTER  14 CYCLES          *
               *****************************************************

             **** ENERGY FILE WAS UPDATED (Diclofenac\Diclofenac_TPSS_def2-TZVP\Diclofenac_TPSS_def2-TZVP.orcainp.en.tmp) ****

----------------
TOTAL SCF ENERGY
----------------

Total Energy       :      -1666.21077717762205 Eh          -45339.90028 eV

Components:
Nuclear Repulsion  :       1645.21700487485873 Eh           44768.63070 eV
Electronic Energy  :      -3311.40527281027153 Eh          -90107.91847 eV
One Electron Energy:      -5554.16662822791295 Eh         -151136.55759 eV
Two Electron Energy:       2242.76135541764143 Eh           61028.63912 eV
CPCM Dielectric    :         -0.02250924220903 Eh              -0.61251 eV

Virial components:
Potential Energy   :      -3327.37456783366997 Eh          -90542.46508 eV
Kinetic Energy     :       1661.16379065604815 Eh           45202.56480 eV
Virial Ratio       :          2.00303822329259

DFT components:
N(Alpha)           :       76.000020746707 electrons
N(Beta)            :       76.000020746707 electrons
N(Total)           :      152.000041493414 electrons
E(X)               :     -155.668553717931 Eh       
E(C)               :       -5.331120249775 Eh       
E(XC)              :     -160.999673967707 Eh       

CPCM Solvation Model Properties:
Surface-charge          :         -0.02803531468290
Corrected charge        :          0.00000000000000
Outlying charge corr.   :          0.00004392647737 Eh               0.00120 eV
Free-energy (cav+disp)  :  This term is not implemented in the current solvation scheme

---------------
SCF CONVERGENCE
---------------

  Last Energy change         ...    4.8658e-09  Tolerance :   1.0000e-08
  Last MAX-Density change    ...    1.0951e-04  Tolerance :   1.0000e-07
  Last RMS-Density change    ...    1.8230e-06  Tolerance :   5.0000e-09
  Last DIIS Error            ...    3.0785e-03  Tolerance :   5.0000e-07
  Last Orbital Gradient      ...    1.0845e-05  Tolerance :   1.0000e-05
  Last Orbital Rotation      ...    2.5992e-05  Tolerance :   1.0000e-05


----------------
ORBITAL ENERGIES
----------------

  NO   OCC          E(Eh)            E(eV) 
   0   2.0000    -101.010942     -2748.6475 
   1   2.0000    -101.006864     -2748.5365 
   2   2.0000     -18.933247      -515.1998 
   3   2.0000     -18.881855      -513.8014 
   4   2.0000     -14.141622      -384.8131 
   5   2.0000     -10.122638      -275.4510 
   6   2.0000     -10.062274      -273.8084 
   7   2.0000     -10.061900      -273.7982 
   8   2.0000     -10.061451      -273.7860 
   9   2.0000     -10.040371      -273.2124 
  10   2.0000     -10.011768      -272.4341 
  11   2.0000     -10.007836      -272.3270 
  12   2.0000     -10.007789      -272.3258 
  13   2.0000     -10.006985      -272.3039 
  14   2.0000     -10.001178      -272.1459 
  15   2.0000      -9.995727      -271.9976 
  16   2.0000      -9.994415      -271.9619 
  17   2.0000      -9.992214      -271.9020 
  18   2.0000      -9.989390      -271.8251 
  19   2.0000      -9.261157      -252.0089 
  20   2.0000      -9.257008      -251.8960 
  21   2.0000      -7.040432      -191.5799 
  22   2.0000      -7.036417      -191.4706 
  23   2.0000      -7.030642      -191.3135 
  24   2.0000      -7.030365      -191.3059 
  25   2.0000      -7.026606      -191.2037 
  26   2.0000      -7.025985      -191.1868 
  27   2.0000      -1.031597       -28.0712 
  28   2.0000      -0.955218       -25.9928 
  29   2.0000      -0.901638       -24.5348 
  30   2.0000      -0.840977       -22.8841 
  31   2.0000      -0.826821       -22.4989 
  32   2.0000      -0.797120       -21.6907 
  33   2.0000      -0.773765       -21.0552 
  34   2.0000      -0.737049       -20.0561 
  35   2.0000      -0.708296       -19.2737 
  36   2.0000      -0.681334       -18.5400 
  37   2.0000      -0.678097       -18.4520 
  38   2.0000      -0.658227       -17.9113 
  39   2.0000      -0.584292       -15.8994 
  40   2.0000      -0.577096       -15.7036 
  41   2.0000      -0.572140       -15.5687 
  42   2.0000      -0.554753       -15.0956 
  43   2.0000      -0.543339       -14.7850 
  44   2.0000      -0.496749       -13.5172 
  45   2.0000      -0.489627       -13.3234 
  46   2.0000      -0.475360       -12.9352 
  47   2.0000      -0.458264       -12.4700 
  48   2.0000      -0.448502       -12.2044 
  49   2.0000      -0.440351       -11.9826 
  50   2.0000      -0.425912       -11.5896 
  51   2.0000      -0.419304       -11.4098 
  52   2.0000      -0.413409       -11.2494 
  53   2.0000      -0.407453       -11.0874 
  54   2.0000      -0.405488       -11.0339 
  55   2.0000      -0.399269       -10.8647 
  56   2.0000      -0.383348       -10.4314 
  57   2.0000      -0.369284       -10.0487 
  58   2.0000      -0.364210        -9.9107 
  59   2.0000      -0.356347        -9.6967 
  60   2.0000      -0.349440        -9.5087 
  61   2.0000      -0.341690        -9.2979 
  62   2.0000      -0.338656        -9.2153 
  63   2.0000      -0.336190        -9.1482 
  64   2.0000      -0.318230        -8.6595 
  65   2.0000      -0.315580        -8.5874 
  66   2.0000      -0.299043        -8.1374 
  67   2.0000      -0.298202        -8.1145 
  68   2.0000      -0.293506        -7.9867 
  69   2.0000      -0.292321        -7.9545 
  70   2.0000      -0.285551        -7.7702 
  71   2.0000      -0.255177        -6.9437 
  72   2.0000      -0.238330        -6.4853 
  73   2.0000      -0.228582        -6.2200 
  74   2.0000      -0.227175        -6.1817 
  75   2.0000      -0.200047        -5.4436 
  76   0.0000      -0.060450        -1.6449 
  77   0.0000      -0.057978        -1.5777 
  78   0.0000      -0.050022        -1.3612 
  79   0.0000      -0.040744        -1.1087 
  80   0.0000      -0.026579        -0.7232 
  81   0.0000      -0.024046        -0.6543 
  82   0.0000       0.017870         0.4863 
  83   0.0000       0.027066         0.7365 
  84   0.0000       0.045834         1.2472 
  85   0.0000       0.056619         1.5407 
  86   0.0000       0.063268         1.7216 
*Only the first 10 virtual orbitals were printed.

                    ********************************
                    * MULLIKEN POPULATION ANALYSIS *
                    ********************************

-----------------------
MULLIKEN ATOMIC CHARGES
-----------------------
   0 O :   -0.343021
   1 C :    0.278454
   2 O :   -0.370553
   3 C :   -0.223929
   4 C :   -0.099999
   5 C :   -0.156581
   6 C :   -0.157324
   7 C :   -0.096556
   8 C :   -0.227165
   9 C :    0.286249
  10 N :   -0.362110
  11 C :    0.275169
  12 C :   -0.053589
  13 Cl:   -0.116790
  14 C :   -0.127934
  15 C :   -0.171090
  16 C :   -0.134837
  17 C :    0.061147
  18 Cl:   -0.127683
  19 H :    0.348121
  20 H :    0.133593
  21 H :    0.163839
  22 H :    0.128419
  23 H :    0.132256
  24 H :    0.135971
  25 H :    0.138567
  26 H :    0.243565
  27 H :    0.149186
  28 H :    0.145484
  29 H :    0.149142
Sum of atomic charges:    0.0000000

--------------------------------
MULLIKEN REDUCED ORBITAL CHARGES
--------------------------------
  0 O s       :     3.753710  s :     3.753710
      pz      :     1.604616  p :     4.559286
      px      :     1.679388
      py      :     1.275282
      dz2     :     0.003698  d :     0.028302
      dxz     :     0.004676
      dyz     :     0.012119
      dx2y2   :     0.003522
      dxy     :     0.004287
      f0      :     0.000112  f :     0.001723
      f+1     :     0.000043
      f-1     :     0.000226
      f+2     :     0.000299
      f-2     :     0.000328
      f+3     :     0.000404
      f-3     :     0.000313

  1 C s       :     3.093807  s :     3.093807
      pz      :     0.904275  p :     2.361555
      px      :     0.760243
      py      :     0.697037
      dz2     :     0.056039  d :     0.242871
      dxz     :     0.027936
      dyz     :     0.063299
      dx2y2   :     0.043418
      dxy     :     0.052179
      f0      :     0.001890  f :     0.023313
      f+1     :     0.001548
      f-1     :     0.007787
      f+2     :     0.003211
      f-2     :     0.003348
      f+3     :     0.002817
      f-3     :     0.002713

  2 O s       :     3.807238  s :     3.807238
      pz      :     1.662579  p :     4.533477
      px      :     1.413327
      py      :     1.457570
      dz2     :     0.004525  d :     0.027988
      dxz     :     0.003007
      dyz     :     0.007084
      dx2y2   :     0.006468
      dxy     :     0.006904
      f0      :     0.000167  f :     0.001850
      f+1     :     0.000065
      f-1     :     0.000427
      f+2     :     0.000329
      f-2     :     0.000325
      f+3     :     0.000228
      f-3     :     0.000309

  3 C s       :     3.150838  s :     3.150838
      pz      :     0.948052  p :     2.977745
      px      :     0.942934
      py      :     1.086760
      dz2     :     0.017410  d :     0.089064
      dxz     :     0.025250
      dyz     :     0.014876
      dx2y2   :     0.011395
      dxy     :     0.020133
      f0      :     0.001497  f :     0.006281
      f+1     :     0.000820
      f-1     :     0.000803
      f+2     :     0.000718
      f-2     :     0.000591
      f+3     :     0.000885
      f-3     :     0.000967

  4 C s       :     3.259274  s :     3.259274
      pz      :     0.959724  p :     2.701443
      px      :     0.850925
      py      :     0.890794
      dz2     :     0.008531  d :     0.129210
      dxz     :     0.020409
      dyz     :     0.022633
      dx2y2   :     0.039620
      dxy     :     0.038017
      f0      :     0.001422  f :     0.010072
      f+1     :     0.000892
      f-1     :     0.000734
      f+2     :     0.000956
      f-2     :     0.001209
      f+3     :     0.001986
      f-3     :     0.002874

  5 C s       :     3.237165  s :     3.237165
      pz      :     0.961523  p :     2.814669
      px      :     0.938570
      py      :     0.914576
      dz2     :     0.005406  d :     0.096968
      dxz     :     0.020069
      dyz     :     0.009167
      dx2y2   :     0.031502
      dxy     :     0.030824
      f0      :     0.001284  f :     0.007778
      f+1     :     0.000699
      f-1     :     0.000636
      f+2     :     0.000730
      f-2     :     0.000929
      f+3     :     0.001434
      f-3     :     0.002066

  6 C s       :     3.206632  s :     3.206632
      pz      :     0.968772  p :     2.845891
      px      :     0.931144
      py      :     0.945976
      dz2     :     0.006201  d :     0.097064
      dxz     :     0.015444
      dyz     :     0.011380
      dx2y2   :     0.019395
      dxy     :     0.044644
      f0      :     0.001115  f :     0.007736
      f+1     :     0.000778
      f-1     :     0.000873
      f+2     :     0.001122
      f-2     :     0.000390
      f+3     :     0.001434
      f-3     :     0.002024

  7 C s       :     3.170650  s :     3.170650
      pz      :     0.960336  p :     2.821121
      px      :     0.941404
      py      :     0.919381
      dz2     :     0.004852  d :     0.097028
      dxz     :     0.007146
      dyz     :     0.021526
      dx2y2   :     0.043717
      dxy     :     0.019786
      f0      :     0.001240  f :     0.007759
      f+1     :     0.000718
      f-1     :     0.000717
      f+2     :     0.000424
      f-2     :     0.001164
      f+3     :     0.001443
      f-3     :     0.002053

  8 C s       :     3.317716  s :     3.317716
      pz      :     0.968125  p :     2.805441
      px      :     0.901533
      py      :     0.935784
      dz2     :     0.007077  d :     0.096036
      dxz     :     0.019369
      dyz     :     0.009620
      dx2y2   :     0.032067
      dxy     :     0.027904
      f0      :     0.001308  f :     0.007972
      f+1     :     0.000839
      f-1     :     0.000598
      f+2     :     0.000758
      f-2     :     0.000937
      f+3     :     0.001431
      f-3     :     0.002100

  9 C s       :     2.993641  s :     2.993641
      pz      :     0.954131  p :     2.549706
      px      :     0.747211
      py      :     0.848364
      dz2     :     0.008015  d :     0.157695
      dxz     :     0.029790
      dyz     :     0.028786
      dx2y2   :     0.046212
      dxy     :     0.044892
      f0      :     0.001589  f :     0.012709
      f+1     :     0.001064
      f-1     :     0.001098
      f+2     :     0.001082
      f-2     :     0.001729
      f+3     :     0.002229
      f-3     :     0.003917

 10 N s       :     3.533706  s :     3.533706
      pz      :     1.439523  p :     3.761783
      px      :     1.258949
      py      :     1.063311
      dz2     :     0.008008  d :     0.063065
      dxz     :     0.008533
      dyz     :     0.013136
      dx2y2   :     0.016714
      dxy     :     0.016673
      f0      :     0.000295  f :     0.003556
      f+1     :     0.000637
      f-1     :     0.000368
      f+2     :     0.000356
      f-2     :     0.000362
      f+3     :     0.000767
      f-3     :     0.000770

 11 C s       :     3.039764  s :     3.039764
      pz      :     0.849612  p :     2.500427
      px      :     0.956724
      py      :     0.694091
      dz2     :     0.031568  d :     0.171744
      dxz     :     0.025505
      dyz     :     0.050449
      dx2y2   :     0.029089
      dxy     :     0.035134
      f0      :     0.002055  f :     0.012896
      f+1     :     0.001265
      f-1     :     0.001799
      f+2     :     0.002332
      f-2     :     0.001681
      f+3     :     0.001804
      f-3     :     0.001960

 12 C s       :     3.281478  s :     3.281478
      pz      :     0.798992  p :     2.602071
      px      :     0.957006
      py      :     0.846073
      dz2     :     0.035925  d :     0.159205
      dxz     :     0.023365
      dyz     :     0.041392
      dx2y2   :     0.028314
      dxy     :     0.030209
      f0      :     0.001862  f :     0.010836
      f+1     :     0.001318
      f-1     :     0.001349
      f+2     :     0.002036
      f-2     :     0.001715
      f+3     :     0.001102
      f-3     :     0.001454

 13 Cls       :     5.927709  s :     5.927709
      pz      :     3.499276  p :    11.115537
      px      :     3.877979
      py      :     3.738283
      dz2     :     0.018074  d :     0.067760
      dxz     :     0.012748
      dyz     :     0.020343
      dx2y2   :     0.006135
      dxy     :     0.010460
      f0      :     0.000853  f :     0.005783
      f+1     :     0.000614
      f-1     :     0.001771
      f+2     :     0.000931
      f-2     :     0.001150
      f+3     :     0.000270
      f-3     :     0.000195

 14 C s       :     3.207179  s :     3.207179
      pz      :     0.951648  p :     2.814968
      px      :     0.945732
      py      :     0.917588
      dz2     :     0.016044  d :     0.097812
      dxz     :     0.015933
      dyz     :     0.024277
      dx2y2   :     0.022870
      dxy     :     0.018688
      f0      :     0.001147  f :     0.007975
      f+1     :     0.000813
      f-1     :     0.000960
      f+2     :     0.001463
      f-2     :     0.001179
      f+3     :     0.000878
      f-3     :     0.001537

 15 C s       :     3.218497  s :     3.218497
      pz      :     0.939371  p :     2.847592
      px      :     0.955721
      py      :     0.952500
      dz2     :     0.029092  d :     0.097187
      dxz     :     0.016231
      dyz     :     0.015361
      dx2y2   :     0.019249
      dxy     :     0.017255
      f0      :     0.001044  f :     0.007814
      f+1     :     0.001108
      f-1     :     0.001203
      f+2     :     0.001442
      f-2     :     0.001353
      f+3     :     0.000979
      f-3     :     0.000685

 16 C s       :     3.211124  s :     3.211124
      pz      :     0.945103  p :     2.817624
      px      :     0.959622
      py      :     0.912899
      dz2     :     0.015109  d :     0.098149
      dxz     :     0.010026
      dyz     :     0.029592
      dx2y2   :     0.017998
      dxy     :     0.025423
      f0      :     0.001144  f :     0.007940
      f+1     :     0.000991
      f-1     :     0.000692
      f+2     :     0.001354
      f-2     :     0.001324
      f+3     :     0.001161
      f-3     :     0.001274

 17 C s       :     3.226053  s :     3.226053
      pz      :     0.813347  p :     2.540335
      px      :     0.896395
      py      :     0.830593
      dz2     :     0.033511  d :     0.161535
      dxz     :     0.023310
      dyz     :     0.037379
      dx2y2   :     0.034279
      dxy     :     0.033056
      f0      :     0.001516  f :     0.010930
      f+1     :     0.001462
      f-1     :     0.001254
      f+2     :     0.002108
      f-2     :     0.001770
      f+3     :     0.001154
      f-3     :     0.001666

 18 Cls       :     5.924460  s :     5.924460
      pz      :     3.585653  p :    11.128332
      px      :     3.636485
      py      :     3.906194
      dz2     :     0.017443  d :     0.069106
      dxz     :     0.020511
      dyz     :     0.010865
      dx2y2   :     0.012535
      dxy     :     0.007752
      f0      :     0.000722  f :     0.005785
      f+1     :     0.001579
      f-1     :     0.000445
      f+2     :     0.001256
      f-2     :     0.001062
      f+3     :     0.000363
      f-3     :     0.000358

 19 H s       :     0.606784  s :     0.606784
      pz      :     0.014774  p :     0.045095
      px      :     0.014351
      py      :     0.015970

 20 H s       :     0.846221  s :     0.846221
      pz      :     0.005234  p :     0.020187
      px      :     0.004974
      py      :     0.009979

 21 H s       :     0.815892  s :     0.815892
      pz      :     0.005766  p :     0.020270
      px      :     0.007239
      py      :     0.007265

 22 H s       :     0.851733  s :     0.851733
      pz      :     0.004838  p :     0.019848
      px      :     0.004469
      py      :     0.010541

 23 H s       :     0.847868  s :     0.847868
      pz      :     0.004653  p :     0.019876
      px      :     0.006785
      py      :     0.008438

 24 H s       :     0.844225  s :     0.844225
      pz      :     0.004732  p :     0.019804
      px      :     0.011274
      py      :     0.003798

 25 H s       :     0.841139  s :     0.841139
      pz      :     0.005017  p :     0.020295
      px      :     0.004778
      py      :     0.010500

 26 H s       :     0.718726  s :     0.718726
      pz      :     0.017604  p :     0.037710
      px      :     0.013404
      py      :     0.006702

 27 H s       :     0.830897  s :     0.830897
      pz      :     0.008132  p :     0.019917
      px      :     0.007483
      py      :     0.004301

 28 H s       :     0.834543  s :     0.834543
      pz      :     0.003909  p :     0.019973
      px      :     0.005171
      py      :     0.010893

 29 H s       :     0.830930  s :     0.830930
      pz      :     0.007806  p :     0.019927
      px      :     0.004935
      py      :     0.007187



                     *******************************
                     * LOEWDIN POPULATION ANALYSIS *
                     *******************************

----------------------
LOEWDIN ATOMIC CHARGES
----------------------
   0 O :    0.108162
   1 C :   -0.478987
   2 O :    0.050786
   3 C :   -0.188319
   4 C :   -0.123667
   5 C :   -0.101470
   6 C :   -0.146920
   7 C :   -0.141653
   8 C :   -0.118296
   9 C :   -0.195843
  10 N :    0.123738
  11 C :   -0.202548
  12 C :   -0.414231
  13 Cl:    0.431142
  14 C :   -0.141709
  15 C :   -0.138629
  16 C :   -0.140046
  17 C :   -0.411417
  18 Cl:    0.417007
  19 H :    0.198110
  20 H :    0.164821
  21 H :    0.165368
  22 H :    0.157021
  23 H :    0.149810
  24 H :    0.151042
  25 H :    0.157131
  26 H :    0.198894
  27 H :    0.156574
  28 H :    0.156886
  29 H :    0.157244

-------------------------------
LOEWDIN REDUCED ORBITAL CHARGES
-------------------------------
  0 O s       :     3.339869  s :     3.339869
      pz      :     1.580092  p :     4.480029
      px      :     1.581575
      py      :     1.318361
      dz2     :     0.007288  d :     0.067348
      dxz     :     0.005459
      dyz     :     0.029772
      dx2y2   :     0.013046
      dxy     :     0.011783
      f0      :     0.000387  f :     0.004593
      f+1     :     0.000098
      f-1     :     0.001205
      f+2     :     0.000784
      f-2     :     0.000726
      f+3     :     0.000733
      f-3     :     0.000661

  1 C s       :     2.778015  s :     2.778015
      pz      :     0.990487  p :     2.639189
      px      :     0.757843
      py      :     0.890859
      dz2     :     0.208380  d :     0.918198
      dxz     :     0.099689
      dyz     :     0.264592
      dx2y2   :     0.174093
      dxy     :     0.171443
      f0      :     0.011231  f :     0.143585
      f+1     :     0.008763
      f-1     :     0.047765
      f+2     :     0.021685
      f-2     :     0.022023
      f+3     :     0.016443
      f-3     :     0.015675

  2 O s       :     3.422273  s :     3.422273
      pz      :     1.591896  p :     4.459307
      px      :     1.354125
      py      :     1.513287
      dz2     :     0.009917  d :     0.062008
      dxz     :     0.006079
      dyz     :     0.019573
      dx2y2   :     0.013204
      dxy     :     0.013235
      f0      :     0.000617  f :     0.005627
      f+1     :     0.000208
      f-1     :     0.001180
      f+2     :     0.000984
      f-2     :     0.000996
      f+3     :     0.000894
      f-3     :     0.000748

  3 C s       :     2.770530  s :     2.770530
      pz      :     0.993707  p :     3.021393
      px      :     0.992135
      py      :     1.035551
      dz2     :     0.082965  d :     0.358637
      dxz     :     0.089336
      dyz     :     0.057675
      dx2y2   :     0.057960
      dxy     :     0.070701
      f0      :     0.008221  f :     0.037758
      f+1     :     0.005985
      f-1     :     0.004227
      f+2     :     0.004752
      f-2     :     0.005069
      f+3     :     0.004573
      f-3     :     0.004930

  4 C s       :     2.713471  s :     2.713471
      pz      :     0.865041  p :     2.851085
      px      :     0.963109
      py      :     1.022935
      dz2     :     0.039301  d :     0.504110
      dxz     :     0.066292
      dyz     :     0.078465
      dx2y2   :     0.163880
      dxy     :     0.156173
      f0      :     0.003807  f :     0.055002
      f+1     :     0.004568
      f-1     :     0.004449
      f+2     :     0.005646
      f-2     :     0.007789
      f+3     :     0.011604
      f-3     :     0.017138

  5 C s       :     2.765289  s :     2.765289
      pz      :     0.886560  p :     2.911789
      px      :     1.040324
      py      :     0.984905
      dz2     :     0.025822  d :     0.382489
      dxz     :     0.069918
      dyz     :     0.026997
      dx2y2   :     0.131695
      dxy     :     0.128058
      f0      :     0.003182  f :     0.041904
      f+1     :     0.004368
      f-1     :     0.002794
      f+2     :     0.004329
      f-2     :     0.005282
      f+3     :     0.008934
      f-3     :     0.013016

  6 C s       :     2.769105  s :     2.769105
      pz      :     0.895689  p :     2.944300
      px      :     1.030581
      py      :     1.018030
      dz2     :     0.031108  d :     0.390138
      dxz     :     0.053819
      dyz     :     0.039284
      dx2y2   :     0.104345
      dxy     :     0.161583
      f0      :     0.003048  f :     0.043378
      f+1     :     0.003934
      f-1     :     0.003883
      f+2     :     0.007366
      f-2     :     0.002523
      f+3     :     0.009188
      f-3     :     0.013435

  7 C s       :     2.769874  s :     2.769874
      pz      :     0.886960  p :     2.936729
      px      :     0.988961
      py      :     1.060808
      dz2     :     0.027162  d :     0.391672
      dxz     :     0.020337
      dyz     :     0.078102
      dx2y2   :     0.157664
      dxy     :     0.108407
      f0      :     0.003200  f :     0.043378
      f+1     :     0.002942
      f-1     :     0.004582
      f+2     :     0.002433
      f-2     :     0.007478
      f+3     :     0.009353
      f-3     :     0.013390

  8 C s       :     2.767406  s :     2.767406
      pz      :     0.904259  p :     2.931673
      px      :     1.024811
      py      :     1.002603
      dz2     :     0.027489  d :     0.377340
      dxz     :     0.069070
      dyz     :     0.028823
      dx2y2   :     0.132918
      dxy     :     0.119040
      f0      :     0.003429  f :     0.041877
      f+1     :     0.004731
      f-1     :     0.002715
      f+2     :     0.004574
      f-2     :     0.005211
      f+3     :     0.008684
      f-3     :     0.012531

  9 C s       :     2.712442  s :     2.712442
      pz      :     0.892993  p :     2.813241
      px      :     0.993757
      py      :     0.926491
      dz2     :     0.045981  d :     0.599110
      dxz     :     0.091501
      dyz     :     0.093983
      dx2y2   :     0.171501
      dxy     :     0.196143
      f0      :     0.004902  f :     0.071051
      f+1     :     0.005341
      f-1     :     0.005597
      f+2     :     0.007320
      f-2     :     0.011451
      f+3     :     0.013560
      f-3     :     0.022879

 10 N s       :     2.967043  s :     2.967043
      pz      :     1.307066  p :     3.687039
      px      :     1.270693
      py      :     1.109280
      dz2     :     0.025247  d :     0.207867
      dxz     :     0.029873
      dyz     :     0.037416
      dx2y2   :     0.058717
      dxy     :     0.056614
      f0      :     0.001539  f :     0.014313
      f+1     :     0.001663
      f-1     :     0.001782
      f+2     :     0.001560
      f-2     :     0.001699
      f+3     :     0.002836
      f-3     :     0.003233

 11 C s       :     2.723108  s :     2.723108
      pz      :     0.993781  p :     2.823075
      px      :     0.935824
      py      :     0.893470
      dz2     :     0.113119  d :     0.586927
      dxz     :     0.073428
      dyz     :     0.162212
      dx2y2   :     0.112462
      dxy     :     0.125705
      f0      :     0.011017  f :     0.069438
      f+1     :     0.006596
      f-1     :     0.010682
      f+2     :     0.010381
      f-2     :     0.009294
      f+3     :     0.010793
      f-3     :     0.010675

 12 C s       :     2.784307  s :     2.784307
      pz      :     0.965251  p :     2.967211
      px      :     0.984520
      py      :     1.017441
      dz2     :     0.133976  d :     0.601342
      dxz     :     0.091604
      dyz     :     0.170730
      dx2y2   :     0.100817
      dxy     :     0.104214
      f0      :     0.010853  f :     0.061371
      f+1     :     0.007841
      f-1     :     0.008951
      f+2     :     0.010035
      f-2     :     0.009234
      f+3     :     0.006956
      f-3     :     0.007501

 13 Cls       :     5.540868  s :     5.540868
      pz      :     3.463161  p :    10.906386
      px      :     3.790451
      py      :     3.652774
      dz2     :     0.028801  d :     0.109326
      dxz     :     0.020234
      dyz     :     0.033558
      dx2y2   :     0.010596
      dxy     :     0.016138
      f0      :     0.002019  f :     0.012278
      f+1     :     0.001273
      f-1     :     0.003374
      f+2     :     0.002085
      f-2     :     0.002463
      f+3     :     0.000572
      f-3     :     0.000493

 14 C s       :     2.774800  s :     2.774800
      pz      :     0.979222  p :     2.936202
      px      :     0.928202
      py      :     1.028779
      dz2     :     0.061464  d :     0.387829
      dxz     :     0.059221
      dyz     :     0.100877
      dx2y2   :     0.084515
      dxy     :     0.081752
      f0      :     0.006515  f :     0.042878
      f+1     :     0.003906
      f-1     :     0.006150
      f+2     :     0.006615
      f-2     :     0.005869
      f+3     :     0.005502
      f-3     :     0.008321

 15 C s       :     2.769808  s :     2.769808
      pz      :     1.000893  p :     2.938393
      px      :     0.953136
      py      :     0.984364
      dz2     :     0.106230  d :     0.387043
      dxz     :     0.071335
      dyz     :     0.072190
      dx2y2   :     0.072052
[...]
      dx2y2   :     0.137870
      dxy     :     0.114046
      f0      :     0.003321  f :     0.042529
      f+1     :     0.004576
      f-1     :     0.003175
      f+2     :     0.004577
      f-2     :     0.005432
      f+3     :     0.008879
      f-3     :     0.012567

  9 C s       :     2.711930  s :     2.711930
      pz      :     0.891149  p :     2.803638
      px      :     0.989308
      py      :     0.923180
      dz2     :     0.046983  d :     0.594008
      dxz     :     0.096712
      dyz     :     0.095089
      dx2y2   :     0.159427
      dxy     :     0.195797
      f0      :     0.005047  f :     0.070690
      f+1     :     0.005260
      f-1     :     0.005708
      f+2     :     0.007129
      f-2     :     0.012257
      f+3     :     0.013859
      f-3     :     0.021431

 10 N s       :     2.959256  s :     2.959256
      pz      :     1.375331  p :     3.676415
      px      :     1.183597
      py      :     1.117486
      dz2     :     0.017023  d :     0.215863
      dxz     :     0.034402
      dyz     :     0.038327
      dx2y2   :     0.066600
      dxy     :     0.059510
      f0      :     0.001396  f :     0.014756
      f+1     :     0.000981
      f-1     :     0.001802
      f+2     :     0.002411
      f-2     :     0.001902
      f+3     :     0.002885
      f-3     :     0.003380

 11 C s       :     2.715557  s :     2.715557
      pz      :     1.005335  p :     2.833448
      px      :     0.933600
      py      :     0.894513
      dz2     :     0.117829  d :     0.600537
      dxz     :     0.082784
      dyz     :     0.176811
      dx2y2   :     0.107884
      dxy     :     0.115229
      f0      :     0.013196  f :     0.073008
      f+1     :     0.007116
      f-1     :     0.010212
      f+2     :     0.011307
      f-2     :     0.010024
      f+3     :     0.010340
      f-3     :     0.010814

 12 C s       :     2.783708  s :     2.783708
      pz      :     0.950004  p :     2.947712
      px      :     0.972082
      py      :     1.025627
      dz2     :     0.130544  d :     0.601722
      dxz     :     0.087031
      dyz     :     0.179619
      dx2y2   :     0.098852
      dxy     :     0.105676
      f0      :     0.010955  f :     0.061449
      f+1     :     0.007285
      f-1     :     0.009253
      f+2     :     0.010715
      f-2     :     0.008715
      f+3     :     0.007465
      f-3     :     0.007059

 13 Cls       :     5.550916  s :     5.550916
      pz      :     3.477377  p :    10.915595
      px      :     3.792511
      py      :     3.645707
      dz2     :     0.026521  d :     0.103492
      dxz     :     0.018809
      dyz     :     0.032395
      dx2y2   :     0.010024
      dxy     :     0.015744
      f0      :     0.001812  f :     0.011660
      f+1     :     0.001176
      f-1     :     0.003225
      f+2     :     0.002000
      f-2     :     0.002405
      f+3     :     0.000552
      f-3     :     0.000490

 14 C s       :     2.772067  s :     2.772067
      pz      :     0.985675  p :     2.935587
      px      :     0.919811
      py      :     1.030102
      dz2     :     0.067845  d :     0.383848
      dxz     :     0.053926
      dyz     :     0.105335
      dx2y2   :     0.076503
      dxy     :     0.080239
      f0      :     0.006930  f :     0.043176
      f+1     :     0.004509
      f-1     :     0.006166
      f+2     :     0.006846
      f-2     :     0.005356
      f+3     :     0.005782
      f-3     :     0.007586

 15 C s       :     2.769369  s :     2.769369
      pz      :     1.009282  p :     2.925181
      px      :     0.931194
      py      :     0.984705
      dz2     :     0.114328  d :     0.386404
      dxz     :     0.072470
      dyz     :     0.078201
      dx2y2   :     0.070350
      dxy     :     0.051056
      f0      :     0.006243  f :     0.043192
      f+1     :     0.006396
      f-1     :     0.007588
      f+2     :     0.007978
      f-2     :     0.007412
      f+3     :     0.003864
      f-3     :     0.003711

 16 C s       :     2.771822  s :     2.771822
      pz      :     0.984475  p :     2.935974
      px      :     0.938926
      py      :     1.012573
      dz2     :     0.066853  d :     0.383516
      dxz     :     0.043140
      dyz     :     0.115671
      dx2y2   :     0.074557
      dxy     :     0.083294
      f0      :     0.007004  f :     0.043280
      f+1     :     0.005371
      f-1     :     0.005263
      f+2     :     0.006914
      f-2     :     0.005289
      f+3     :     0.007334
      f-3     :     0.006105

 17 C s       :     2.784017  s :     2.784017
      pz      :     0.942901  p :     2.942337
      px      :     0.938995
      py      :     1.060440
      dz2     :     0.125100  d :     0.600137
      dxz     :     0.102409
      dyz     :     0.158340
      dx2y2   :     0.102682
      dxy     :     0.111607
      f0      :     0.010498  f :     0.061153
      f+1     :     0.007613
      f-1     :     0.008549
      f+2     :     0.010723
      f-2     :     0.008647
      f+3     :     0.007063
      f-3     :     0.008060

 18 Cls       :     5.556909  s :     5.556909
      pz      :     3.506084  p :    10.932272
      px      :     3.652525
      py      :     3.773663
      dz2     :     0.025730  d :     0.103702
      dxz     :     0.029643
      dyz     :     0.020976
      dx2y2   :     0.015365
      dxy     :     0.011988
      f0      :     0.001678  f :     0.011503
      f+1     :     0.002675
      f-1     :     0.001473
      f+2     :     0.002216
      f-2     :     0.002275
      f+3     :     0.000567
      f-3     :     0.000619

 19 H s       :     0.645035  s :     0.645035
      pz      :     0.080749  p :     0.172768
      px      :     0.047494
      py      :     0.044524

 20 H s       :     0.779119  s :     0.779119
      pz      :     0.012109  p :     0.058951
      px      :     0.012327
      py      :     0.034515

 21 H s       :     0.773643  s :     0.773643
      pz      :     0.020024  p :     0.059906
      px      :     0.020250
      py      :     0.019633

 22 H s       :     0.785555  s :     0.785555
      pz      :     0.013447  p :     0.058766
      px      :     0.013596
      py      :     0.031723

 23 H s       :     0.791379  s :     0.791379
      pz      :     0.013470  p :     0.058955
      px      :     0.019895
      py      :     0.025590

 24 H s       :     0.790215  s :     0.790215
      pz      :     0.014029  p :     0.058702
      px      :     0.033392
      py      :     0.011281

 25 H s       :     0.780187  s :     0.780187
      pz      :     0.014160  p :     0.060753
      px      :     0.013713
      py      :     0.032880

 26 H s       :     0.694420  s :     0.694420
      pz      :     0.047877  p :     0.107906
      px      :     0.043552
      py      :     0.016477

 27 H s       :     0.782147  s :     0.782147
      pz      :     0.026117  p :     0.059984
      px      :     0.020505
      py      :     0.013362

 28 H s       :     0.782715  s :     0.782715
      pz      :     0.011094  p :     0.059270
      px      :     0.014089
      py      :     0.034087

 29 H s       :     0.781732  s :     0.781732
      pz      :     0.025731  p :     0.060064
      px      :     0.014601
      py      :     0.019733



                      *****************************
                      * MAYER POPULATION ANALYSIS *
                      *****************************

  NA   - Mulliken gross atomic population
  ZA   - Total nuclear charge
  QA   - Mulliken gross atomic charge
  VA   - Mayer's total valence
  BVA  - Mayer's bonded valence
  FA   - Mayer's free valence

  ATOM       NA         ZA         QA         VA         BVA        FA
  0 O      8.3394     8.0000    -0.3394     2.0698     2.0698     0.0000
  1 C      5.7665     6.0000     0.2335     4.4231     4.4231    -0.0000
  2 O      8.3727     8.0000    -0.3727     2.1227     2.1227     0.0000
  3 C      6.1890     6.0000    -0.1890     3.7644     3.7644    -0.0000
  4 C      6.0703     6.0000    -0.0703     3.9712     3.9712     0.0000
  5 C      6.1652     6.0000    -0.1652     3.9225     3.9225    -0.0000
  6 C      6.1582     6.0000    -0.1582     3.8860     3.8860     0.0000
  7 C      6.1178     6.0000    -0.1178     3.8637     3.8637     0.0000
  8 C      6.2161     6.0000    -0.2161     3.9932     3.9932     0.0000
  9 C      5.7164     6.0000     0.2836     3.5206     3.5206     0.0000
 10 N      7.4279     7.0000    -0.4279     3.0857     3.0857     0.0000
 11 C      5.7396     6.0000     0.2604     3.5447     3.5447    -0.0000
 12 C      5.9774     6.0000     0.0226     3.9208     3.9208    -0.0000
 13 Cl    17.1216    17.0000    -0.1216     1.2130     1.2130    -0.0000
 14 C      6.1496     6.0000    -0.1496     3.9214     3.9214    -0.0000
 15 C      6.1351     6.0000    -0.1351     3.8863     3.8863     0.0000
 16 C      6.1504     6.0000    -0.1504     3.9176     3.9176     0.0000
 17 C      5.9540     6.0000     0.0460     3.8638     3.8638     0.0000
 18 Cl    17.1344    17.0000    -0.1344     1.2129     1.2129    -0.0000
 19 H      0.6540     1.0000     0.3460     0.9363     0.9363    -0.0000
 20 H      0.8634     1.0000     0.1366     0.9915     0.9915    -0.0000
 21 H      0.8469     1.0000     0.1531     0.9700     0.9700    -0.0000
 22 H      0.8710     1.0000     0.1290     0.9658     0.9658    -0.0000
 23 H      0.8665     1.0000     0.1335     0.9610     0.9610     0.0000
 24 H      0.8644     1.0000     0.1356     0.9611     0.9611     0.0000
 25 H      0.8532     1.0000     0.1468     0.9696     0.9696     0.0000
 26 H      0.7256     1.0000     0.2744     0.9339     0.9339     0.0000
 27 H      0.8508     1.0000     0.1492     0.9690     0.9690    -0.0000
 28 H      0.8527     1.0000     0.1473     0.9572     0.9572     0.0000
 29 H      0.8498     1.0000     0.1502     0.9675     0.9675    -0.0000

  Mayer bond orders larger than 0.100000
B(  0-O ,  1-C ) :   1.2669 B(  0-O , 19-H ) :   0.7659 B(  1-C ,  2-O ) :   2.0545 
B(  1-C ,  3-C ) :   1.0089 B(  3-C ,  4-C ) :   0.9895 B(  3-C , 20-H ) :   0.9298 
B(  3-C , 21-H ) :   0.9073 B(  4-C ,  5-C ) :   1.4023 B(  4-C ,  9-C ) :   1.2752 
B(  5-C ,  6-C ) :   1.3762 B(  5-C , 22-H ) :   0.9853 B(  6-C ,  7-C ) :   1.3758 
B(  6-C , 23-H ) :   0.9875 B(  7-C ,  8-C ) :   1.3847 B(  7-C , 24-H ) :   0.9814 
B(  8-C ,  9-C ) :   1.3859 B(  8-C , 25-H ) :   0.9650 B(  9-C , 10-N ) :   0.8380 
B( 10-N , 11-C ) :   0.9331 B( 10-N , 19-H ) :   0.1523 B( 10-N , 26-H ) :   0.8813 
B( 11-C , 12-C ) :   1.2698 B( 11-C , 17-C ) :   1.2825 B( 12-C , 13-Cl) :   1.0067 
B( 12-C , 14-C ) :   1.3526 B( 14-C , 15-C ) :   1.3757 B( 14-C , 27-H ) :   0.9728 
B( 15-C , 16-C ) :   1.3721 B( 15-C , 28-H ) :   0.9777 B( 16-C , 17-C ) :   1.3548 
B( 16-C , 29-H ) :   0.9744 B( 17-C , 18-Cl) :   1.0112 

-------
TIMINGS
-------

Total SCF time: 0 days 0 hours 0 min 55 sec 

Total time                  ....      55.861 sec
Sum of individual times     ....      55.751 sec  ( 99.8%)

SCF preparation             ....       0.334 sec  (  0.6%)
Fock matrix formation       ....      54.683 sec  ( 97.9%)
  Startup                   ....       0.023 sec  (  0.0% of F)
  Split-RI-J                ....      10.648 sec  ( 19.5% of F)
  XC integration            ....      29.021 sec  ( 53.1% of F)
    Basis function eval.    ....       3.845 sec  ( 13.2% of XC)
    Density eval.           ....      12.619 sec  ( 43.5% of XC)
    XC-Functional eval.     ....       0.393 sec  (  1.4% of XC)
    XC-Potential eval.      ....      11.814 sec  ( 40.7% of XC)
  CPCM terms                ....      14.908 sec  ( 27.3% of F)
Diagonalization             ....       0.000 sec  (  0.0%)
Density matrix formation    ....       0.055 sec  (  0.1%)
Total Energy calculation    ....       0.029 sec  (  0.1%)
Population analysis         ....       0.078 sec  (  0.1%)
Orbital Transformation      ....       0.079 sec  (  0.1%)
Orbital Orthonormalization  ....       0.000 sec  (  0.0%)
DIIS solution               ....       0.089 sec  (  0.2%)
SOSCF solution              ....       0.404 sec  (  0.7%)
Finished LeanSCF after  55.9 sec

Maximum memory used throughout the entire LEANSCF-calculation: 137.9 MB

-------------------------   --------------------
FINAL SINGLE POINT ENERGY     -1666.222631065409
-------------------------   --------------------

                                *** OPTIMIZATION RUN DONE ***


------------------------------------------------------------------------------
                              ORCA PROPERTY CALCULATIONS
------------------------------------------------------------------------------

GBWName                                 ... Diclofenac\Diclofenac_TPSS_def2-TZVP\Diclofenac_TPSS_def2-TZVP.orcainp.gbw
Number of atoms                         ...     30
Number of basis functions               ...    667
Max core memory                         ...   1024 MB

Electric properties:
Dipole moment                           ... YES
Quadrupole moment                       ...  NO
Static polarizability (Dipole/Dipole)   ...  NO
Static polarizability (Dipole/Quad.)    ...  NO
Static polarizability (Quad./Quad.)     ...  NO
Static polarizability (Velocity)        ...  NO

Atomic electric properties:
Dipole moment                           ...  NO
Quadrupole moment                       ...  NO
Static polarizability                   ...  NO

Choice of electric origin               ... Center of mass
Position of electric origin             ...     9.240653     4.192809    -2.563634

General magnetic properties:
Magnetizability                         ...  NO

EPR properties:
g-Tensor (aka g-matrix)                 ...  NO
Zero-Field splitting spin-orbit         ...  NO
Zero-field splitting spin-spin          ...  NO
Hyperfine couplings                     ...  NO (   0 nuclei)
Quadrupole couplings                    ...  NO (   0 nuclei)
Contact density                         ...  NO (   0 nuclei)

NMR properties:
Chemical shifts                         ...  NO (   0 nuclei)
Spin-rotation constants                 ...  NO (   0 nuclei)
Spin-spin couplings                     ...  NO (   0 nuclei,    0 pairs)

Choice of magnetic origin               ... GIAO
Position of magnetic origin             ...     0.000000     0.000000     0.000000

Properties with geometric perturbations:
SCF Hessian                             ...  NO
IR spectrum                             ...  NO
VCD spectrum                            ...  NO
X-ray spectroscopy properties:
SCF XES/XAS/RIXS spectra                ...  NO


-------------
DIPOLE MOMENT
-------------

Method             : SCF
Type of density    : Electron Density
Multiplicity       :   1
Irrep              :   0
Energy             : -1666.2226310654089048 Eh
Relativity type    : 
Basis              : AO
                                X                 Y                 Z
Electronic contribution:     -3.556863809       8.929806704      -0.647827889
Nuclear contribution   :      4.882430282      -6.882990375       3.145003432
                        -----------------------------------------
Total Dipole Moment    :      1.325566473       2.046816329       2.497175543
                        -----------------------------------------
Magnitude (a.u.)       :      3.490339418
Magnitude (Debye)      :      8.871737752



--------------------
Rotational spectrum 
--------------------
 
Rotational constants in cm-1:             0.014153             0.007506             0.007359 
Rotational constants in MHz :           424.286204           225.020083           220.612057 

Dipole components along the rotational axes: 
x,y,z [a.u.] :     2.716560     0.595665     2.109018 
x,y,z [Debye]:     6.904946     1.514060     5.360697 

 

Dipole moment calculation done in   0.0 sec 

Maximum memory used throughout the entire PROP-calculation: 83.5 MB

--------------------------------
SUGGESTED CITATIONS FOR THIS RUN
--------------------------------

Below you find a list of papers that are relevant to this ORCA run
We neither can nor want to force you to cite these papers, but we appreciate if you do
You receive ORCA, which is the product of decades of hard work by many enthusiastic individuals, for free
The only thing we kindly ask in return is that you cite our papers,
We deeply appreciate it, if you show your appreciation for ORCA by not just citing the generic ORCA reference.

Please note that relegating all ORCA citations to the supporting information does *not* help us.
SI sections are not indexed - citations you put there will not count into any citation statistics
But we need these citations in order to attract the funding resources that allow us to do what we are doing

Therefore, if you are a happy ORCA user, please consider citing a few of the papers listed below in the main body of your paper

In addition to the list printed below, the program has created the file Diclofenac\Diclofenac_TPSS_def2-TZVP\Diclofenac_TPSS_def2-TZVP.orcainp.bibtex that contains the list in bibtex format
You can import this file easily into all common literature databanks and citation aid programs


List of essential papers. We consider these as the minimum necessary citations

  1. Neese,F.
     Software update: the ORCA program system, version 5.0
     WIRES Comput. Molec. Sci., 2022 12(1)e1606
     doi.org/10.1002/wcms.1606

List of papers to cite with high priority. The work reported in these papers was absolutely
necessary for this run to complete.
Our perspective: the developers of density functionals and basis sets usually get cited in chemistry papers
Good! But without the algorithms to do something with them, the functionals or basis sets would not do anything.
Hence, in our opinion, the algorithm design and method developments papers are equally worthy of getting cited

  1. Neese,F.
     An improvement of the resolution of the identity approximation for the formation of the Coulomb matrix
     J. Comp. Chem., 2003 24(14)1740-1747
     doi.org/10.1002/jcc.10318
  2. Garcia-Rates,M.; Neese,F.
     Effect of the Solute Cavity on the Solvation Energy and its Derivatives within the Framework of the Gaussian Charge Scheme
     J. Comput. Chem., 2020 41 922-939
     doi.org/10.1002/jcc.26139
  3. Neese,F.
     The SHARK Integral Generation and Digestion System
     J. Comp. Chem., 2022  1-16
     doi.org/10.1002/jcc.26942

List of suggested additional citations. These are papers that are important in the 'surrounding' of 
of this run, or papers that preceded the highly important papers. If you like your results we are grateful for a citation.

  1. Neese,F.
     The ORCA program system
     WIRES Comput. Molec. Sci., 2012 2(1)73-78
     doi.org/10.1002/wcms.81
  2. Neese,F.
     Software update: the ORCA program system, version 4.0
     WIRES Comput. Molec. Sci., 2018 8(1)1-6
     doi.org/10.1002/wcms.1327
  3. Neese,F.; Wennmohs,F.; Becker,U.; Riplinger,C.
     The ORCA quantum chemistry program package
     J. Chem. Phys., 2020 152 Art. No. L224108
     doi.org/10.1063/5.0004608

List of optional additional citations

  1. Neese,F.
     Approximate second-order SCF convergence for spin unrestricted wavefunctions
     Chem. Phys. Lett., 2000 325(1-3)93-98
     doi.org/10.1016/s0009-2614(00)00662-x

Timings for individual modules:

Sum of individual times          ...     1500.595 sec (=  25.010 min)
Startup calculation              ...       20.859 sec (=   0.348 min)   1.4 %
SCF iterations                   ...     1115.933 sec (=  18.599 min)  74.4 %
Property calculations            ...        0.140 sec (=   0.002 min)   0.0 %
SCF Gradient evaluation          ...      363.534 sec (=   6.059 min)  24.2 %
Geometry relaxation              ...        0.129 sec (=   0.002 min)   0.0 %
                             ****ORCA TERMINATED NORMALLY****
TOTAL RUN TIME: 0 days 0 hours 25 minutes 2 seconds 119 msec
