
                                 *****************
                                 * O   R   C   A *
                                 *****************

                                            #,                                       
                                            ###                                      
                                            ####                                     
                                            #####                                    
                                            ######                                   
                                           ########,                                 
                                     ,,################,,,,,                         
                               ,,#################################,,                 
                          ,,##########################################,,             
                       ,#########################################, ''#####,          
                    ,#############################################,,   '####,        
                  ,##################################################,,,,####,       
                ,###########''''           ''''###############################       
              ,#####''   ,,,,##########,,,,          '''####'''          '####       
            ,##' ,,,,###########################,,,                        '##       
           ' ,,###''''                  '''############,,,                           
         ,,##''                                '''############,,,,        ,,,,,,###''
      ,#''                                            '''#######################'''  
     '                                                          ''''####''''         
             ,#######,   #######,   ,#######,      ##                                
            ,#'     '#,  ##    ##  ,#'     '#,    #''#        ,####,   ,####,        
            ##       ##  ##   ,#'  ##            #'  '#       #'       #'  '#        
            ##       ##  #######   ##           ,######,      #####,   #    #        
            '#,     ,#'  ##    ##  '#,     ,#' ,#      #,     #,   #   #,  ,#        
             '#######'   ##     ##  '#######'  #'      '#     '####' # '####'        



                #########################################################
                #                        -***-                          #
                #          Department of theory and spectroscopy        #
                #                                                       #
                #                      Frank Neese                      #
                #                                                       #
                #     Directorship, Architecture, Infrastructure        #
                #                    SHARK, DRIVERS                     #
                #        Core code/Algorithms in most modules           #
                #                                                       #
                #        Max Planck Institute fuer Kohlenforschung      #
                #                Kaiser Wilhelm Platz 1                 #
                #                 D-45470 Muelheim/Ruhr                 #
                #                      Germany                          #
                #                                                       #
                #                  All rights reserved                  #
                #                        -***-                          #
                #########################################################


                         Program Version 6.0.0  -   RELEASE   -


 With contributions from (in alphabetic order):
   Daniel Aravena         : Magnetic Suceptibility
   Michael Atanasov       : Ab Initio Ligand Field Theory (pilot matlab implementation)
   Alexander A. Auer      : GIAO ZORA, VPT2 properties, NMR spectrum
   Ute Becker             : All parallelization in ORCA, NUMFREQ, NUMCALC
   Giovanni Bistoni       : ED, misc. LED, open-shell LED, HFLD
   Martin Brehm           : Molecular dynamics
   Dmytro Bykov           : pre 5.0 version of the SCF Hessian
   Marcos Casanova-Páez   : Triplet and SCS-CIS(D). UHF-(DLPNO)-IP/EA/STEOM-CCSD. UHF-CVS-IP/STEOM-CCSD
   Vijay G. Chilkuri      : MRCI spin determinant printing, contributions to CSF-ICE
   Pauline Colinet        : FMM embedding
   Dipayan Datta          : RHF DLPNO-CCSD density
   Achintya Kumar Dutta   : EOM-CC, STEOM-CC
   Nicolas Foglia         : Exact transition moments, OPA infrastructure, MCD improvements
   Dmitry Ganyushin       : Spin-Orbit,Spin-Spin,Magnetic field MRCI
   Miquel Garcia          : C-PCM and meta-GGA Hessian, CCSD/C-PCM, Gaussian charge scheme
   Tiago L. C. Gouveia    : GS-ROHF, GS-ROCIS
   Yang Guo               : DLPNO-NEVPT2, F12-NEVPT2, CIM, IAO-localization
   Andreas Hansen         : Spin unrestricted coupled pair/coupled cluster methods
   Ingolf Harden          : AUTO-CI MPn and infrastructure 
   Benjamin Helmich-Paris : MC-RPA, TRAH-(SCF,CASSCF), AVAS, COSX integrals, SCF dyn. polar.
   Lee Huntington         : MR-EOM, pCC
   Robert Izsak           : Overlap fitted RIJCOSX, COSX-SCS-MP3, EOM
   Riya Kayal             : Wick's Theorem for AUTO-CI, AUTO-CI UHF-CCSDT
   Emily Kempfer          : AUTO-CI, RHF CISDT and CCSDT
   Christian Kollmar      : KDIIS, OOCD, Brueckner-CCSD(T), CCSD density, CASPT2, CASPT2-K, improved NEVPT2
   Axel Koslowski         : Symmetry handling
   Simone Kossmann        : Meta GGA functionals, TD-DFT gradient, OOMP2, (MP2 Hessian; deprecated post 5.0)
   Lucas Lang             : DCDCAS
   Marvin Lechner         : AUTO-CI (C++ implementation), FIC-MRCC
   Spencer Leger          : CASSCF response
   Dagmar Lenk            : GEPOL surface, SMD, ORCA-2-JSON
   Dimitrios Liakos       : Extrapolation schemes; Compound Job, initial MDCI parallelization
   Dimitrios Manganas     : Further ROCIS development; embedding schemes. LFT, Crystal Embedding
   Dimitrios Pantazis     : SARC Basis sets
   Anastasios Papadopoulos: AUTO-CI, single reference methods and gradients
   Taras Petrenko         : pre 6.0 DFT Hessian and TD-DFT gradient, (ASA, deprecated), ECA, 1-Electron XAS/XES, NRVS
   Peter Pinski           : DLPNO-MP2, DLPNO-MP2 Gradient
   Christoph Reimann      : Effective Core Potentials
   Marius Retegan         : Local ZFS, SOC
   Christoph Riplinger    : Optimizer, TS searches, QM/MM, DLPNO-CCSD(T), (RO)-DLPNO pert. Triples
   Michael Roemelt        : Original ROCIS implementation
   Masaaki Saitow         : Open-shell DLPNO-CCSD energy and density
   Barbara Sandhoefer     : DKH picture change effects
   Kantharuban Sivalingam : CASSCF convergence/infrastructure, NEVPT2 and variants, FIC-MRCI
   Bernardo de Souza      : ESD, SOC TD-DFT
   Georgi Stoychev        : AutoAux, RI-MP2 NMR, DLPNO-MP2 response, X2C
   Van Anh Tran           : RI-MP2 g-tensors
   Willem Van den Heuvel  : Paramagnetic NMR
   Zikuan Wang            : NOTCH, Electric field optimization 
   Frank Wennmohs         : Technical directorship and infrastructure
   Hang Xu                : AUTO-CI-Response properties 


 We gratefully acknowledge several colleagues who have allowed us to
 interface, adapt or use parts of their codes:
   Stefan Grimme, W. Hujo, H. Kruse, P. Pracht,  : VdW corrections, initial TS optimization,
                  C. Bannwarth, S. Ehlert,         DFT functionals, gCP, sTDA/sTD-DF
                  L. Wittmann, M. Mueller
   Ed Valeev, F. Pavosevic, A. Kumar             : LibInt (2-el integral package), F12 methods
   Garnet Chan, S. Sharma, J. Yang, R. Olivares  : DMRG
   Ulf Ekstrom                                   : XCFun DFT Library
   Mihaly Kallay                                 : mrcc  (arbitrary order and MRCC methods)
   Frank Weinhold                                : gennbo (NPA and NBO analysis)
   Simon Mueller                                 : openCOSMO-RS
   Christopher J. Cramer and Donald G. Truhlar   : smd solvation model
   Lars Goerigk                                  : TD-DFT with DH, B97 family of functionals
   V. Asgeirsson, H. Jonsson                     : NEB implementation
   FAccTs GmbH                                   : IRC, NEB, NEB-TS, DLPNO-Multilevel, CI-OPT
                                                   MM, QMMM, 2- and 3-layer-ONIOM, Crystal-QMMM,
                                                   LR-CPCM, SF, NACMEs, symmetry and pop. for TD-DFT,
                                                   nearIR, NL-DFT gradient (VV10), updates on ESD,
                                                   ML-optimized integration grids, MBIS, APM,
                                                   GOAT, DOCKER, SOLVATOR, interface openCOSMO-RS
   S Lehtola, MJT Oliveira, MAL Marques          : LibXC Library
   Liviu Ungur et al                             : ANISO software


 Your calculation uses the libint2 library for the computation of 2-el integrals
 For citations please refer to: http://libint.valeyev.net

 Your ORCA version has been built with support for libXC version: 6.2.2
 For citations please refer to: https://libxc.gitlab.io

 This ORCA versions uses:
   CBLAS   interface :  Fast vector & matrix operations
   LAPACKE interface :  Fast linear algebra routines
   Shared memory     :  Shared parallel matrices


Warning: RI is on but no J-basis has been assigned. Assigning Def2/J (nothing to worry about!)
================================================================================

----- Orbital basis set information -----
Your calculation utilizes the basis: STO-3G
   H-Ne       : W. J. Hehre, R. F. Stewart and J. A. Pople, J. Chem. Phys. 2657 (1969).
   Na-Ar      : W. J. Hehre, R. Ditchfield, R. F. Stewart and J. A. Pople, J. Chem. Phys. 2769 (1970).
   K,Ca,Ga-Kr : W. J. Pietro, B. A. Levy, W. J. Hehre and R. F. Stewart, J. Am. Chem. Soc. 19, 2225 (1980).
   Sc-Zn,Y-Cd : W. J. Pietro and W. J. Hehre, J. Comp. Chem. 4, 241 (1983).

----- AuxJ basis set information -----
Your calculation utilizes the auxiliary basis: def2/J
   F. Weigend, Phys. Chem. Chem. Phys. 8, 1057 (2006).

================================================================================
                                        WARNINGS
                       Please study these warnings very carefully!
================================================================================

WARNING: Old DensityContainer found on disk!
         Will remove this file - 
         If you want to keep old densities, please start your calculation with a different basename. 

INFO   : Checking CIS options ...

WARNING: CIS/ROCIS methods need fully converged wavefunctions
  ===> : Setting SCFConvForced true
         You can overwrite this default with %scf ConvForced false 


================================================================================
                                       INPUT FILE
================================================================================
NAME = Ibuprofen\Ibuprofen_TPSS_STO-3G\Ibuprofen_TPSS_STO-3G.orcainp.xyz
|  1> # ORCA xyz input file 
|  2> # 
|  3> !TPSS STO-3G CPCM(WATER) LARGEPRINT 
|  4> %tddft
|  5>     NRoots 30
|  6>     MaxDim 5
|  7> end
|  8> * xyz 0 1
|  9>   C           2.83983731015041     -0.06081093022292      1.24303291222015
| 10>   C           2.50199302057930     -1.19382170384173      0.21867772855434
| 11>   C           0.96307575015874     -1.48083584178740      0.19792223150535
| 12>   C           2.99968649749661     -0.83136068003731     -1.23691447791548
| 13>   C           4.53617671608052     -0.69851003286075     -1.34050973413706
| 14>   C           5.36679961439979     -1.85130395309970     -1.31681990767001
| 15>   C           6.77037972986325     -1.73601405899376     -1.40280888091257
| 16>   C           7.39468657650980     -0.46208868763196     -1.51467658514767
| 17>   C           6.56195026667628      0.69256124141788     -1.53991790138480
| 18>   C           5.15865128833331      0.57363976303069     -1.45278603249937
| 19>   C           8.93607560236188     -0.35468576666769     -1.61444087774631
| 20>   C           9.42602089874157      0.45816576210973     -2.86097965315851
| 21>   C           9.58995149106262      0.27497546827993     -0.28088319959324
| 22>   O           8.76829518890505      0.21148553076419      0.88726967844621
| 23>   O          10.74706118055702      0.76788620659359     -0.21297489922492
| 24>   H           2.50185369380968     -0.34769092048663      2.25558685882695
| 25>   H           2.33431954120693      0.88058047615513      0.96001308435881
| 26>   H           3.92886578642822      0.12335704897010      1.27670530467610
| 27>   H           3.02562999524868     -2.12063633166994      0.53577742828446
| 28>   H           0.40594796734367     -0.58235248510068     -0.12491020988503
| 29>   H           0.61177298720245     -1.76567906252788      1.20663836386962
| 30>   H           0.73123339395841     -2.30593367146585     -0.50015341609366
| 31>   H           2.52643969113489      0.11860728128506     -1.55408666696566
| 32>   H           2.65825078024184     -1.63068742524064     -1.92625421281568
| 33>   H           4.90732465051317     -2.85110847017429     -1.23674324962612
| 34>   H           7.39681128701077     -2.64434202695225     -1.38791300828278
| 35>   H           7.01776424275636      1.69330884637639     -1.62612199537630
| 36>   H           4.53381678141085      1.48248272044725     -1.47798652424513
| 37>   H           9.34340975295247     -1.38699194722597     -1.68989249164068
| 38>   H           8.99590494356670      1.47557772592725     -2.86226720363711
| 39>   H           9.12932630100985     -0.05496581949722     -3.79389494993012
| 40>   H          10.52821497171536      0.54172235857884     -2.83237750648627
| 41>   H           7.88907210061335     -0.19602061445147      0.50877999363248
| 42> *
| 43> 
| 44>                          ****END OF INPUT****
================================================================================

                       ****************************
                       * Single Point Calculation *
                       ****************************

---------------------------------
CARTESIAN COORDINATES (ANGSTROEM)
---------------------------------
  C      2.839837   -0.060811    1.243033
  C      2.501993   -1.193822    0.218678
  C      0.963076   -1.480836    0.197922
  C      2.999686   -0.831361   -1.236914
  C      4.536177   -0.698510   -1.340510
  C      5.366800   -1.851304   -1.316820
  C      6.770380   -1.736014   -1.402809
  C      7.394687   -0.462089   -1.514677
  C      6.561950    0.692561   -1.539918
  C      5.158651    0.573640   -1.452786
  C      8.936076   -0.354686   -1.614441
  C      9.426021    0.458166   -2.860980
  C      9.589951    0.274975   -0.280883
  O      8.768295    0.211486    0.887270
  O     10.747061    0.767886   -0.212975
  H      2.501854   -0.347691    2.255587
  H      2.334320    0.880580    0.960013
  H      3.928866    0.123357    1.276705
  H      3.025630   -2.120636    0.535777
  H      0.405948   -0.582352   -0.124910
  H      0.611773   -1.765679    1.206638
  H      0.731233   -2.305934   -0.500153
  H      2.526440    0.118607   -1.554087
  H      2.658251   -1.630687   -1.926254
  H      4.907325   -2.851108   -1.236743
  H      7.396811   -2.644342   -1.387913
  H      7.017764    1.693309   -1.626122
  H      4.533817    1.482483   -1.477987
  H      9.343410   -1.386992   -1.689892
  H      8.995905    1.475578   -2.862267
  H      9.129326   -0.054966   -3.793895
  H     10.528215    0.541722   -2.832378
  H      7.889072   -0.196021    0.508780

----------------------------
CARTESIAN COORDINATES (A.U.)
----------------------------
  NO LB      ZA    FRAG     MASS         X           Y           Z
   0 C     6.0000    0    12.011    5.366515   -0.114916    2.348992
   1 C     6.0000    0    12.011    4.728082   -2.255996    0.413241
   2 C     6.0000    0    12.011    1.819949   -2.798374    0.374019
   3 C     6.0000    0    12.011    5.668586   -1.571044   -2.337430
   4 C     6.0000    0    12.011    8.572132   -1.319993   -2.533196
   5 C     6.0000    0    12.011   10.141781   -3.498457   -2.488429
   6 C     6.0000    0    12.011   12.794164   -3.280591   -2.650925
   7 C     6.0000    0    12.011   13.973932   -0.873221   -2.862324
   8 C     6.0000    0    12.011   12.400289    1.308751   -2.910023
   9 C     6.0000    0    12.011    9.748438    1.084022   -2.745368
  10 C     6.0000    0    12.011   16.886736   -0.670259   -3.050851
  11 C     6.0000    0    12.011   17.812598    0.865808   -5.406468
  12 C     6.0000    0    12.011   18.122382    0.519628   -0.530792
  13 O     8.0000    0    15.999   16.569677    0.399650    1.676697
  14 O     8.0000    0    15.999   20.309002    1.451095   -0.402464
  15 H     1.0000    0     1.008    4.727818   -0.657041    4.262441
  16 H     1.0000    0     1.008    4.411225    1.664056    1.814162
  17 H     1.0000    0     1.008    7.424480    0.233111    2.412623
  18 H     1.0000    0     1.008    5.717612   -4.007422    1.012473
  19 H     1.0000    0     1.008    0.767130   -1.100487   -0.236046
  20 H     1.0000    0     1.008    1.156083   -3.336650    2.280216
  21 H     1.0000    0     1.008    1.381831   -4.357583   -0.945153
  22 H     1.0000    0     1.008    4.774279    0.224135   -2.936798
  23 H     1.0000    0     1.008    5.023366   -3.081553   -3.640093
  24 H     1.0000    0     1.008    9.273500   -5.387814   -2.337106
  25 H     1.0000    0     1.008   13.977948   -4.997082   -2.622775
  26 H     1.0000    0     1.008   13.261652    3.199890   -3.072925
  27 H     1.0000    0     1.008    8.567672    2.801486   -2.792990
  28 H     1.0000    0     1.008   17.656486   -2.621035   -3.193434
  29 H     1.0000    0     1.008   16.999797    2.788438   -5.408901
  30 H     1.0000    0     1.008   17.251926   -0.103870   -7.169422
  31 H     1.0000    0     1.008   19.895443    1.023707   -5.352418
  32 H     1.0000    0     1.008   14.908186   -0.370425    0.961455

--------------------------------
INTERNAL COORDINATES (ANGSTROEM)
--------------------------------
 C      0   0   0     0.000000000000     0.00000000     0.00000000
 C      1   0   0     1.564338748301     0.00000000     0.00000000
 C      2   1   0     1.565590710000   110.71663838     0.00000000
 C      2   1   3     1.580451031282   111.65214140   122.71895463
 C      4   2   1     1.545698373995   113.23281604    63.68686878
 C      5   4   2     1.421066300223   120.67611365    73.94396326
 C      6   5   4     1.410929836571   120.94131332   180.38905022
 C      7   6   5     1.423080909091   120.95429192     0.04941449
 C      8   7   6     1.423834029800   118.08396258   359.88119901
 C      9   8   7     1.411021723155   120.81131548     0.16273143
 C      8   7   6     1.548343770138   120.25778316   180.27705959
 C     11   8   7     1.566726817249   113.48869027   125.79484884
 C     11   8   7     1.613196525406   112.16776919   250.11220885
 O     13  11   8     1.429591269389   115.16221561    19.86510954
 O     13  11   8     1.259553637891   124.72775815   198.14686166
 H      1   2   3     1.105349966534   110.23253479    58.51728501
 H      1   2   3     1.105380575948   110.51176258   298.70415129
 H      1   2   3     1.105004387646   110.70219028   178.52415608
 H      2   1   3     1.110735456878   108.39649984   241.32676233
 H      3   2   1     1.105388842825   110.50468418    61.90875236
 H      3   2   1     1.105467108219   110.33526115   302.03244594
 H      3   2   1     1.105371845326   110.57194762   181.99925263
 H      4   2   1     1.107700259446   109.01754228   301.69006987
 H      4   2   1     1.109365072790   108.06680292   184.58135766
 H      6   5   4     1.103240040048   119.53379439     0.79552892
 H      7   6   5     1.103493579586   119.77796528   180.31881119
 H      9   8   7     1.103038211233   119.69902962   180.01251456
 H     10   9   8     1.103199323364   119.50116644   180.21370672
 H     11   8   7     1.112326438909   107.73108079     5.97580272
 H     12  11   8     1.104594267956   110.91795767    57.04899379
 H     12  11   8     1.105288494157   110.28828365   296.45603926
 H     12  11   8     1.105726712215   109.28971332   176.72596693
 H     14  13  11     1.040360004462   101.87923643   356.12888063

---------------------------
INTERNAL COORDINATES (A.U.)
---------------------------
 C      0   0   0     0.000000000000     0.00000000     0.00000000
 C      1   0   0     2.956171814970     0.00000000     0.00000000
 C      2   1   0     2.958537679711   110.71663838     0.00000000
 C      2   1   3     2.986619617196   111.65214140   122.71895463
 C      4   2   1     2.920946612498   113.23281604    63.68686878
 C      5   4   2     2.685426125567   120.67611365    73.94396326
 C      6   5   4     2.666270985298   120.94131332   180.38905022
 C      7   6   5     2.689233184594   120.95429192     0.04941449
 C      8   7   6     2.690656376479   118.08396258   359.88119901
 C      9   8   7     2.666444625777   120.81131548     0.16273143
 C      8   7   6     2.925945686725   120.25778316   180.27705959
 C     11   8   7     2.960684611270   113.48869027   125.79484884
 C     11   8   7     3.048499633210   112.16776919   250.11220885
 O     13  11   8     2.701535982590   115.16221561    19.86510954
 O     13  11   8     2.380211426599   124.72775815   198.14686166
 H      1   2   3     2.088808718889   110.23253479    58.51728501
 H      1   2   3     2.088866562297   110.51176258   298.70415129
 H      1   2   3     2.088155669433   110.70219028   178.52415608
 H      2   1   3     2.098985820735   108.39649984   241.32676233
 H      3   2   1     2.088882184431   110.50468418    61.90875236
 H      3   2   1     2.089030084592   110.33526115   302.03244594
 H      3   2   1     2.088850063813   110.57194762   181.99925263
 H      4   2   1     2.093250128827   109.01754228   301.69006987
 H      4   2   1     2.096396170111   108.06680292   184.58135766
 H      6   5   4     2.084821535667   119.53379439     0.79552892
 H      7   6   5     2.085300655958   119.77796528   180.31881119
 H      9   8   7     2.084440134482   119.69902962   180.01251456
 H     10   9   8     2.084744592285   119.50116644   180.21370672
 H     11   8   7     2.101992341057   107.73108079     5.97580272
 H     12  11   8     2.087380655536   110.91795767    57.04899379
 H     12  11   8     2.088692552931   110.28828365   296.45603926
 H     12  11   8     2.089520665048   109.28971332   176.72596693
 H     14  13  11     1.965995489118   101.87923643   356.12888063

---------------------
BASIS SET INFORMATION
---------------------
There are 3 groups of distinct atoms

 Group   1 Type C   : 6s3p contracted to 2s1p pattern {33/3}
 Group   2 Type O   : 6s3p contracted to 2s1p pattern {33/3}
 Group   3 Type H   : 3s contracted to 1s pattern {3}

Atom   0C    basis set group =>   1
Atom   1C    basis set group =>   1
Atom   2C    basis set group =>   1
Atom   3C    basis set group =>   1
Atom   4C    basis set group =>   1
Atom   5C    basis set group =>   1
Atom   6C    basis set group =>   1
Atom   7C    basis set group =>   1
Atom   8C    basis set group =>   1
Atom   9C    basis set group =>   1
Atom  10C    basis set group =>   1
Atom  11C    basis set group =>   1
Atom  12C    basis set group =>   1
Atom  13O    basis set group =>   2
Atom  14O    basis set group =>   2
Atom  15H    basis set group =>   3
Atom  16H    basis set group =>   3
Atom  17H    basis set group =>   3
Atom  18H    basis set group =>   3
Atom  19H    basis set group =>   3
Atom  20H    basis set group =>   3
Atom  21H    basis set group =>   3
Atom  22H    basis set group =>   3
Atom  23H    basis set group =>   3
Atom  24H    basis set group =>   3
Atom  25H    basis set group =>   3
Atom  26H    basis set group =>   3
Atom  27H    basis set group =>   3
Atom  28H    basis set group =>   3
Atom  29H    basis set group =>   3
Atom  30H    basis set group =>   3
Atom  31H    basis set group =>   3
Atom  32H    basis set group =>   3

-------------------------
BASIS SET IN INPUT FORMAT
-------------------------

 # Basis set for element : H 
 NewGTO H 
 S 3 
   1       3.4252509100      0.1543289707
   2       0.6239137300      0.5353281424
   3       0.1688554000      0.4446345420
  end;

 # Basis set for element : C 
 NewGTO C 
 S 3 
   1      71.6168370000      0.1543289700
   2      13.0450960000      0.5353281400
   3       3.5305122000      0.4446345400
 S 3 
   1       2.9412494000     -0.0999672301
   2       0.6834831000      0.3995128303
   3       0.2222899000      0.7001154705
 P 3 
   1       2.9412494000      0.1559162721
   2       0.6834831000      0.6076837282
   3       0.2222899000      0.3919573953
  end;

 # Basis set for element : O 
 NewGTO O 
 S 3 
   1     130.7093200000      0.1543289687
   2      23.8088610000      0.5353281356
   3       6.4436083000      0.4446345363
 S 3 
   1       5.0331513000     -0.0999672287
   2       1.1695961000      0.3995128246
   3       0.3803890000      0.7001154606
 P 3 
   1       5.0331513000      0.1559162685
   2       1.1695961000      0.6076837141
   3       0.3803890000      0.3919573862
  end;

---------------------------------
AUXILIARY/J BASIS SET INFORMATION
---------------------------------
There are 3 groups of distinct atoms

 Group   1 Type C   : 12s5p4d2f1g contracted to 6s4p3d1f1g pattern {711111/2111/211/2/1}
 Group   2 Type O   : 12s5p4d2f1g contracted to 6s4p3d1f1g pattern {711111/2111/211/2/1}
 Group   3 Type H   : 5s2p1d contracted to 3s1p1d pattern {311/2/1}

Atom   0C    basis set group =>   1
Atom   1C    basis set group =>   1
Atom   2C    basis set group =>   1
Atom   3C    basis set group =>   1
Atom   4C    basis set group =>   1
Atom   5C    basis set group =>   1
Atom   6C    basis set group =>   1
Atom   7C    basis set group =>   1
Atom   8C    basis set group =>   1
Atom   9C    basis set group =>   1
Atom  10C    basis set group =>   1
Atom  11C    basis set group =>   1
Atom  12C    basis set group =>   1
Atom  13O    basis set group =>   2
Atom  14O    basis set group =>   2
Atom  15H    basis set group =>   3
Atom  16H    basis set group =>   3
Atom  17H    basis set group =>   3
Atom  18H    basis set group =>   3
Atom  19H    basis set group =>   3
Atom  20H    basis set group =>   3
Atom  21H    basis set group =>   3
Atom  22H    basis set group =>   3
Atom  23H    basis set group =>   3
Atom  24H    basis set group =>   3
Atom  25H    basis set group =>   3
Atom  26H    basis set group =>   3
Atom  27H    basis set group =>   3
Atom  28H    basis set group =>   3
Atom  29H    basis set group =>   3
Atom  30H    basis set group =>   3
Atom  31H    basis set group =>   3
Atom  32H    basis set group =>   3

-------------------------------------
AUXILIARY/J BASIS SET IN INPUT FORMAT
-------------------------------------

 # Auxiliary/J basis set for element : H 
 NewAuxJGTO H 
 S 3 
   1      15.6752927000      0.1007184237
   2       3.6063578000      0.3404257499
   3       1.2080016000      0.6491996172
 S 1 
   1       0.4726794000      1.0000000000
 S 1 
   1       0.2018100000      1.0000000000
 P 2 
   1       2.0281365000      0.5596620919
   2       0.5358730000      0.5596620919
 D 1 
   1       2.2165124000      1.0000000000
  end;

 # Auxiliary/J basis set for element : C 
 NewAuxJGTO C 
 S 7 
   1    1861.0916331000      0.0134602335
   2     642.9939764000      0.0299160374
   3     235.1105725000      0.1008649584
   4      90.7028894000      0.2370970548
   5      36.7794552000      0.3924037254
   6      15.6046273000      0.3195862154
   7       6.8907294000      0.0530104441
 S 1 
   1       3.1478850000     -1.0000000000
 S 1 
   1       1.4777287000      1.0000000000
 S 1 
   1       0.7076466000      1.0000000000
 S 1 
   1       0.3430122000      1.0000000000
 S 1 
   1       0.1669453000      1.0000000000
 P 2 
   1      13.5472892000     -0.6769313712
   2       5.4669419000     -0.3779500978
 P 1 
   1       2.1751721000      1.0000000000
 P 1 
   1       0.8582194000      1.0000000000
 P 1 
   1       0.3376720000      1.0000000000
 D 2 
   1       5.9287253000     -0.3533329857
   2       1.9809209000     -0.7456525731
 D 1 
   1       0.8055417000     -1.0000000000
 D 1 
   1       0.3531244000     -1.0000000000
 F 2 
   1       1.6755626000      0.6311076882
   2       0.5997536000      0.4968166032
 G 1 
   1       1.0024600000     -1.0000000000
  end;

 # Auxiliary/J basis set for element : O 
 NewAuxJGTO O 
 S 7 
   1    2876.8216605000      0.0168151159
   2    1004.7443032000      0.0340137548
   3     369.7579954000      0.1194951309
   4     142.9442404000      0.2664627624
   5      57.8366425000      0.4202764046
   6      24.3864983000      0.2765077335
   7      10.6622662000      0.0057008815
 S 1 
   1       4.8070437000     -1.0000000000
 S 1 
   1       2.2210770000      1.0000000000
 S 1 
   1       1.0447795000      1.0000000000
 S 1 
   1       0.4968425000      1.0000000000
 S 1 
   1       0.2371384000      1.0000000000
 P 2 
   1      64.2613382000     -0.2731534179
   2      16.3006076000     -0.8168011598
 P 1 
   1       4.3550542000      1.0000000000
 P 1 
   1       1.2019554000      1.0000000000
 P 1 
   1       0.3354196000      1.0000000000
 D 2 
   1       9.2146611000     -0.4661230638
   2       2.8435251000     -0.6600908911
 D 1 
   1       0.9955759000     -1.0000000000
 D 1 
   1       0.3649441000     -1.0000000000
 F 2 
   1       2.6420115000      0.5931563945
   2       0.7345613000      0.5931563945
 G 1 
   1       1.3931000000     -1.0000000000
  end;


Checking for AutoStart:
The File: Ibuprofen\Ibuprofen_TPSS_STO-3G\Ibuprofen_TPSS_STO-3G.orcainp.gbw exists
Trying to determine its content:
     ... Fine, the file contains calculation information
     ... Fine, the calculation information was read
     ... Fine, the file contains a basis set
     ... Fine, the basis set was read
     ... Fine, the file contains a geometry
     ... Fine, the geometry was read
     ... Fine, the file contains a set of orbitals
     ... Fine, the orbitals can be read
     => possible old guess file was deleted
     => GBW file was renamed to GES file
     => GES file is set as startup file
     => Guess is set to MORead
     ... now leaving AutoStart

------------------------------------------------------------------------------
                             ORCA STARTUP CALCULATIONS
                           -- RI-GTO INTEGRALS CHOSEN --
------------------------------------------------------------------------------
------------------------------------------------------------------------------
                   ___                                                        
                  /   \      - P O W E R E D   B Y -                         
                 /     \                                                     
                 |  |  |   _    _      __       _____    __    __             
                 |  |  |  | |  | |    /  \     |  _  \  |  |  /  |          
                  \  \/   | |  | |   /    \    | | | |  |  | /  /          
                 / \  \   | |__| |  /  /\  \   | |_| |  |  |/  /          
                |  |  |   |  __  | /  /__\  \  |    /   |      \           
                |  |  |   | |  | | |   __   |  |    \   |  |\   \          
                \     /   | |  | | |  |  |  |  | |\  \  |  | \   \       
                 \___/    |_|  |_| |__|  |__|  |_| \__\ |__|  \__/        
                                                                              
                      - O R C A' S   B I G   F R I E N D -                    
                                      &                                       
                       - I N T E G R A L  F E E D E R -                       
                                                                              
 v1 FN, 2020, v2 2021, v3 2022-2024                                           
------------------------------------------------------------------------------


----------------------
SHARK INTEGRAL PACKAGE
----------------------

Number of atoms                             ...     33
Number of basis functions                   ...     93
Number of shells                            ...     63
Maximum angular momentum                    ...      1
Integral batch strategy                     ... SHARK/LIBINT Hybrid
RI-J (if used) integral strategy            ... SPLIT-RIJ (Revised 2003 algorithm where possible)
Printlevel                                  ...      1
Contraction scheme used                     ... SEGMENTED contraction
Prescreening option                         ... SCHWARTZ
   Thresh                                   ... 1.000e-10
   Tcut                                     ... 1.000e-11
   Tpresel                                  ... 1.000e-11 
Coulomb Range Separation                    ... NOT USED
Exchange Range Separation                   ... NOT USED
Multipole approximations                    ... NOT USED
Finite Nucleus Model                        ... NOT USED
CABS basis                                  ... NOT available
Auxiliary Coulomb fitting basis             ... AVAILABLE
   # of basis functions in Aux-J            ...    933
   # of shells in Aux-J                     ...    315
   Maximum angular momentum in Aux-J        ...      4
Auxiliary J/K fitting basis                 ... NOT available
Auxiliary Correlation fitting basis         ... NOT available
Auxiliary 'external' fitting basis          ... NOT available

Checking pre-screening integrals            ... done (  0.0 sec) Dimension = 63
Check shell pair data                       ... done (  0.0 sec)
Shell pair information
Shell pair cut-off parameter TPreSel        ...   1.0e-11
Total number of shell pairs                 ...      2016
Shell pairs after pre-screening             ...      1648
Total number of primitive shell pairs       ...     18144
Primitive shell pairs kept                  ...      9610
          la=0 lb=0:    912 shell pairs
          la=1 lb=0:    623 shell pairs
          la=1 lb=1:    113 shell pairs

Calculating one electron integrals          ... done (  0.0 sec)
Calculating RI/J V-Matrix + Cholesky decomp.... done (  0.0 sec)
Calculating Nuclear repulsion               ... done (  0.0 sec) ENN=    952.135581749054 Eh

Diagonalization of the overlap matrix:
Smallest eigenvalue                        ... 1.840e-01
Time for diagonalization                   ...    0.001 sec
Threshold for overlap eigenvalues          ... 1.000e-07
Number of eigenvalues below threshold      ... 0
Time for construction of square roots      ...    0.001 sec
Total time needed                          ...    0.003 sec

-------------------
DFT GRID GENERATION
-------------------

General Integration Accuracy     IntAcc      ... 4.388
Radial Grid Type                 RadialGrid  ... OptM3 with GC (2021)
Angular Grid (max. ang.)         AngularGrid ... 4 (Lebedev-302)
Angular grid pruning method      GridPruning ... 4 (adaptive)
Weight generation scheme         WeightScheme... mBecke (2022)
Basis function cutoff            BFCut       ... 1.0000e-10
Integration weight cutoff        WCut        ... 1.0000e-14
Partially contracted basis set               ... off
Rotationally invariant grid construction     ... off
Angular grids for H and He will be reduced by one unit

Total number of grid points                  ...   147150
Total number of batches                      ...     2317
Average number of points per batch           ...       63
Average number of grid points per atom       ...     4459
Initializing property integral containers    ... done (  0.0 sec)

SHARK setup successfully completed in   0.8 seconds

Maximum memory used throughout the entire STARTUP-calculation: 51.6 MB
-------------------------------------------------------------------------------
                                 ORCA GUESS
                   Start orbitals & Density for SCF / CASSCF
-------------------------------------------------------------------------------

------------
SCF SETTINGS
------------
Hamiltonian:
 Density Functional     Method          .... DFT(GTOs)
 Exchange Functional    Exchange        .... TPSS
 Correlation Functional Correlation     .... TPSS
 LDA part of GGA corr.  LDAOpt          .... PW91-LDA
 Gradients option       PostSCFGGA      .... off
   NL short-range parameter             ....  5.000000
 RI-approximation to the Coulomb term is turned on
   Number of AuxJ basis functions       .... 933


General Settings:
 Integral files         IntName         .... Ibuprofen\Ibuprofen_TPSS_STO-3G\Ibuprofen_TPSS_STO-3G.orcainp
 Hartree-Fock type      HFTyp           .... RHF
 Total Charge           Charge          ....    0
 Multiplicity           Mult            ....    1
 Number of Electrons    NEL             ....  112
 Basis Dimension        Dim             ....   93
 Nuclear Repulsion      ENuc            ....    952.1355817491 Eh

Convergence Acceleration:
 AO-DIIS                CNVDIIS         .... on
   Start iteration      DIISMaxIt       ....    12
   Startup error        DIISStart       ....  0.200000
   # of expansion vecs  DIISMaxEq       ....     5
   Bias factor          DIISBfac        ....   1.050
   Max. coefficient     DIISMaxC        ....  10.000
 MO-DIIS                CNVKDIIS        .... off
 Trust-Rad. Augm. Hess. CNVTRAH         .... auto
   Auto Start mean grad. ratio tolernc. ....  1.125000
   Auto Start start iteration           ....     1
   Auto Start num. interpolation iter.  ....    10
   Max. Number of Micro iterations      ....    24
   Max. Number of Macro iterations      .... Maxiter - #DIIS iter
   Number of Davidson start vectors     ....     2
   Converg. threshold    (grad. norm)   ....   5.000e-05
   Grad. Scal. Fac. for Micro threshold ....   0.100
   Minimum threshold for Micro iter.    ....   1.000e-02
   NR start threshold (gradient norm)   ....   1.000e-04
   Initial trust radius                 ....   0.400
   Minimum AH scaling param. (alpha)    ....   1.000
   Maximum AH scaling param. (alpha)    .... 1000.000
   Quad. conv. algorithm                .... NR
   White noise on init. David. guess    .... on
   Maximum white noise                  ....   0.010
   Pseudo random numbers                .... off
   Inactive MOs                         .... canonical
   Orbital update algorithm             .... Taylor
   Preconditioner                       .... Diag
   Full preconditioner red. dimension   ....   250
 SOSCF                  CNVSOSCF        .... on
   Start iteration      SOSCFMaxIt      ....   150
   Startup grad/error   SOSCFStart      ....  0.003300
   Hessian update       SOSCFHessUp     .... L-BFGS
 Level Shifting         CNVShift        .... on
   Level shift para.    LevelShift      ....    0.2500
   Turn off err/grad.   ShiftErr        ....    0.0010
 Zerner damping         CNVZerner       .... off
 Static damping         CNVDamp         .... on
   Fraction old density DampFac         ....    0.7000
   Max. Damping (<1)    DampMax         ....    0.9800
   Min. Damping (>=0)   DampMin         ....    0.0000
   Turn off err/grad.   DampErr         ....    0.1000

SCF Procedure:
 Maximum # iterations   MaxIter         ....   125
 SCF integral mode      SCFMode         .... Direct
   Integral package                     .... SHARK and LIBINT hybrid scheme
 Reset frequency        DirectResetFreq ....    20
 Integral Threshold     Thresh          ....  1.000e-10 Eh
 Primitive CutOff       TCut            ....  1.000e-11 Eh

Convergence Tolerance:
 Convergence Check Mode ConvCheckMode   .... Total+1el-Energy
 Convergence forced     ConvForced      .... 1
 Energy Change          TolE            ....  1.000e-06 Eh
 1-El. energy change                    ....  1.000e-03 Eh
 Orbital Gradient       TolG            ....  5.000e-05
 Orbital Rotation angle TolX            ....  5.000e-05
 DIIS Error             TolErr          ....  1.000e-06

---------------------
INITIAL GUESS: MOREAD
---------------------
Guess MOs are being read from file: Ibuprofen\Ibuprofen_TPSS_STO-3G\Ibuprofen_TPSS_STO-3G.orcainp.ges
Input Geometry matches current geometry (good)
Input basis set matches current basis set (good)
Occupation numbers will be reassigned to an Aufbau configuration
MOs were renormalized
MOs were reorthogonalized (Cholesky)
                      ------------------
                      INITIAL GUESS DONE (   0.0 sec)
                      ------------------
----------------------
INITIAL GUESS ORBITALS
----------------------
                      0         1         2         3         4         5   
                 -18.68931 -18.62453  -9.89595  -9.85226  -9.83836  -9.83485
                   2.00000   2.00000   2.00000   2.00000   2.00000   2.00000
                  --------  --------  --------  --------  --------  --------
  0C   1s        -0.000001  0.000000  0.000002  0.000001  0.023701 -0.005588
  0C   2s         0.000007 -0.000000  0.000001  0.000001  0.007807 -0.001036
  0C   1pz        0.000000  0.000000 -0.000000  0.000000 -0.003506  0.000525
  0C   1px        0.000006 -0.000000  0.000001  0.000000 -0.001152  0.000106
  0C   1py        0.000001 -0.000000  0.000000  0.000000 -0.003898  0.000437
  1C   1s         0.000000 -0.000000 -0.000000 -0.000001 -0.980915  0.134857
  1C   2s        -0.000000  0.000000 -0.000000 -0.000000 -0.042716 -0.000707
  1C   1pz        0.000000 -0.000000  0.000000  0.000000  0.000367  0.004870
  1C   1px       -0.000000 -0.000000 -0.000000 -0.000000 -0.000291 -0.001673
  1C   1py       -0.000000  0.000000 -0.000000 -0.000000  0.000259 -0.001250
  2C   1s        -0.000000  0.000000  0.000000  0.000000  0.025068 -0.006125
  2C   2s         0.000000 -0.000000  0.000000  0.000000  0.007869 -0.001051
  2C   1pz        0.000000 -0.000000  0.000000 -0.000000  0.000101  0.000111
  2C   1px        0.000000 -0.000000  0.000000  0.000000  0.005284 -0.000646
  2C   1py        0.000000 -0.000000  0.000000  0.000000  0.000964 -0.000142
  3C   1s        -0.000000  0.000000 -0.000000  0.000029  0.133820  0.978610
  3C   2s        -0.000000 -0.000000 -0.000000  0.000009  0.012366  0.041825
  3C   1pz        0.000001 -0.000000  0.000000 -0.000000  0.004806 -0.001339
  3C   1px        0.000000 -0.000000 -0.000000  0.000005 -0.001652  0.000528
  3C   1py       -0.000000 -0.000000  0.000000  0.000001 -0.001205  0.000281
  4C   1s         0.000000 -0.000000 -0.000002  0.000090 -0.003083 -0.077165
  4C   2s         0.000002  0.000000 -0.000001 -0.000012 -0.001110 -0.010210
  4C   1pz       -0.000004  0.000000 -0.000000 -0.000001 -0.000039 -0.000375
  4C   1px       -0.000001  0.000000 -0.000002  0.000018  0.000854  0.005347
  4C   1py        0.000000  0.000000  0.000000  0.000002  0.000071  0.000444
  5C   1s        -0.000000 -0.000000 -0.000002  0.000205 -0.000313  0.001746
  5C   2s         0.000006  0.000000  0.000000  0.000047  0.000012  0.001010
  5C   1pz        0.000004 -0.000000  0.000005 -0.000006 -0.000031 -0.000027
  5C   1px        0.000008  0.000000  0.000000  0.000027  0.000016 -0.000421
  5C   1py       -0.000003 -0.000000 -0.000000  0.000058 -0.000041  0.000310
  6C   1s         0.000014 -0.000001 -0.000066 -0.000068 -0.000050 -0.000629
  6C   2s        -0.000033  0.000002 -0.000015 -0.000396 -0.000012 -0.000117
  6C   1pz       -0.000094  0.000011 -0.000049  0.000029  0.000003  0.000006
  6C   1px       -0.000009  0.000003 -0.000010 -0.000255  0.000008  0.000068
  6C   1py        0.000007  0.000002 -0.000011 -0.000119 -0.000005 -0.000054
  7C   1s         0.000078  0.000006  0.000268  0.020379 -0.000037 -0.000175
  7C   2s        -0.000439  0.000002 -0.000147  0.007863  0.000000  0.000023
  7C   1pz       -0.000527 -0.000074 -0.000043 -0.000396 -0.000001 -0.000001
  7C   1px       -0.000020  0.000010 -0.000094  0.005513  0.000002  0.000005
  7C   1py       -0.000056 -0.000035  0.000024  0.000357  0.000000  0.000000
  8C   1s         0.000019  0.000000 -0.000048 -0.000139 -0.000056 -0.000565
  8C   2s        -0.000056  0.000005 -0.000088 -0.000416 -0.000009 -0.000095
  8C   1pz       -0.000118  0.000007  0.000034  0.000020  0.000006 -0.000002
  8C   1px       -0.000021  0.000000  0.000025 -0.000201  0.000005  0.000043
  8C   1py       -0.000025 -0.000015 -0.000023 -0.000009  0.000006  0.000064
  9C   1s         0.000000  0.000000  0.000008  0.000233 -0.000197  0.001778
  9C   2s         0.000005 -0.000001  0.000021  0.000071  0.000022  0.000981
  9C   1pz        0.000003  0.000001 -0.000012 -0.000002 -0.000037  0.000023
  9C   1px        0.000007 -0.000001  0.000014  0.000052 -0.000018 -0.000404
  9C   1py        0.000006  0.000001  0.000003 -0.000049  0.000010 -0.000411
 10C   1s         0.000034 -0.000021  0.010184 -0.990287  0.000004  0.000020
 10C   2s        -0.000240  0.000142  0.006186 -0.042077 -0.000001 -0.000004
 10C   1pz       -0.000416 -0.000115  0.003990  0.000284 -0.000000 -0.000000
 10C   1px        0.000242  0.000409  0.002057  0.000032  0.000001  0.000004
 10C   1py        0.000008  0.000157  0.001982  0.000738  0.000000  0.000000
 11C   1s        -0.000001 -0.000013  0.000397  0.022498 -0.000000 -0.000004
 11C   2s        -0.000030  0.000066 -0.000278  0.007757 -0.000000 -0.000000
 11C   1pz        0.000042 -0.000005  0.000192  0.004266 -0.000000 -0.000000
 11C   1px        0.000035  0.000096  0.000069 -0.001719 -0.000000 -0.000000
 11C   1py        0.000060  0.000073  0.000169 -0.002815 -0.000000  0.000000
 12C   1s        -0.000593  0.000677 -0.991596 -0.011597  0.000000  0.000000
 12C   2s         0.004713 -0.007593 -0.035818  0.005898 -0.000000 -0.000000
 12C   1pz        0.004114 -0.000447 -0.000221 -0.004319  0.000000  0.000000
 12C   1px       -0.002675 -0.006524 -0.000917 -0.002167  0.000000  0.000000
 12C   1py       -0.000144 -0.002791 -0.000331 -0.002021 -0.000000  0.000000
 13O   1s        -0.993759 -0.000931 -0.000630  0.000032  0.000000  0.000000
 13O   2s        -0.027629  0.000323  0.005305 -0.000291 -0.000000 -0.000001
 13O   1pz        0.003770  0.000063 -0.002711  0.000230  0.000000  0.000000
 13O   1px        0.000695  0.000420  0.002580  0.000148  0.000000  0.000001
 13O   1py        0.001055  0.000190  0.000400  0.000107  0.000000  0.000000
 14O   1s        -0.000848  0.993814 -0.000567  0.000018  0.000000  0.000000
 14O   2s        -0.000292  0.027761  0.007298 -0.000086 -0.000000  0.000000
 14O   1pz       -0.000499 -0.000278 -0.000083  0.000342  0.000000  0.000000
 14O   1px        0.000254 -0.005040 -0.002918  0.000024 -0.000000 -0.000000
 14O   1py       -0.000012 -0.002145 -0.001235  0.000096  0.000000  0.000000
 15H   1s        -0.000000  0.000000 -0.000000 -0.000000 -0.000344 -0.000071
 16H   1s        -0.000000  0.000000  0.000000 -0.000000 -0.000271  0.000096
 17H   1s        -0.000014  0.000000 -0.000003 -0.000001 -0.000338  0.000066
 18H   1s        -0.000000 -0.000000 -0.000000 -0.000000  0.008704 -0.001083
 19H   1s         0.000000 -0.000000 -0.000000  0.000000 -0.000286  0.000094
 20H   1s         0.000000 -0.000000  0.000000  0.000000 -0.000365 -0.000071
 21H   1s         0.000000 -0.000000  0.000000  0.000000 -0.000343  0.000153
 22H   1s         0.000000  0.000000  0.000000 -0.000000 -0.001244 -0.008644
 23H   1s         0.000000 -0.000000  0.000000 -0.000001 -0.001296 -0.008621
 24H   1s        -0.000001  0.000000 -0.000000  0.000012 -0.000136 -0.000183
 25H   1s        -0.000009 -0.000001 -0.000005 -0.000020  0.000001  0.000000
 26H   1s        -0.000014  0.000014  0.000145  0.000249 -0.000001 -0.000003
 27H   1s        -0.000001 -0.000000 -0.000004  0.000006 -0.000009 -0.000060
 28H   1s        -0.000035  0.000025  0.000120  0.008788 -0.000000 -0.000000
 29H   1s        -0.000015 -0.000005  0.000134 -0.000272  0.000000  0.000000
 30H   1s         0.000018  0.000009  0.000192 -0.000323  0.000000  0.000000
 31H   1s         0.000039 -0.000225  0.000272 -0.000317  0.000000  0.000000
 32H   1s         0.006251 -0.000133  0.001258  0.000292  0.000001  0.000002
                      6         7         8         9        10        11   
                  -9.83203  -9.83045  -9.82893  -9.82314  -9.82306  -9.82078
                   2.00000   2.00000   2.00000   2.00000   2.00000   2.00000
                  --------  --------  --------  --------  --------  --------
  0C   1s        -0.000000  0.000018 -0.000106 -0.000429  0.000445  0.009243
  0C   2s        -0.000000  0.000005  0.000160 -0.000038  0.000038  0.000543
  0C   1pz       -0.000000  0.000002  0.000148 -0.000004  0.000003  0.000040
  0C   1px       -0.000000  0.000003  0.000069 -0.000015  0.000013  0.000114
  0C   1py        0.000000  0.000001  0.000066 -0.000001  0.000002  0.000017
  1C   1s         0.000002  0.000118  0.007532 -0.000013 -0.000062  0.000117
  1C   2s         0.000000  0.000000 -0.000074  0.000002  0.000002 -0.000043
  1C   1pz        0.000000  0.000005  0.000360  0.000003 -0.000001 -0.000025
  1C   1px       -0.000000 -0.000006 -0.000352  0.000000  0.000000 -0.000014
  1C   1py       -0.000000 -0.000003 -0.000174  0.000001 -0.000006 -0.000018
  2C   1s        -0.000000 -0.000022 -0.002240 -0.000033 -0.000045 -0.001875
  2C   2s        -0.000000 -0.000003 -0.000268 -0.000002 -0.000003 -0.000081
  2C   1pz       -0.000000  0.000000  0.000071  0.000000  0.000000  0.000002
  2C   1px       -0.000000 -0.000002 -0.000134 -0.000000 -0.000000  0.000003
  2C   1py       -0.000000 -0.000001 -0.000044  0.000000  0.000000 -0.000002
  3C   1s         0.000011  0.000932  0.078281  0.000032 -0.000412  0.001682
  3C   2s         0.000000 -0.000018 -0.003398 -0.000010  0.000055  0.000009
  3C   1pz       -0.000000  0.000001  0.000297  0.000004 -0.000002 -0.000024
  3C   1px       -0.000000 -0.000048 -0.005282 -0.000004  0.000042 -0.000154
  3C   1py        0.000000 -0.000003 -0.000488 -0.000070 -0.000020  0.000078
  4C   1s         0.000130  0.013199  0.985856 -0.004059  0.010249  0.039917
  4C   2s         0.000010  0.000726  0.041496  0.000629 -0.001808 -0.005780
  4C   1pz       -0.000000 -0.000014 -0.000093 -0.000074  0.000035  0.000480
  4C   1px        0.000005  0.000228  0.002359  0.000194 -0.000794 -0.002128
  4C   1py        0.000000  0.000018  0.000190  0.001026  0.000161 -0.005738
  5C   1s        -0.000043 -0.001210 -0.042965  0.053993  0.121730 -0.121216
  5C   2s        -0.000024 -0.000944 -0.010604  0.006311  0.012892 -0.005162
  5C   1pz        0.000009  0.000034  0.000113 -0.000165 -0.000347  0.000020
  5C   1px       -0.000011 -0.000358  0.003349  0.002731  0.005343  0.000017
  5C   1py       -0.000006 -0.000207 -0.004992  0.000174  0.000736 -0.000298
  6C   1s         0.001018  0.049203 -0.000114 -0.461689 -0.865113 -0.004213
  6C   2s         0.000242  0.010891  0.000596 -0.019922 -0.037262  0.000776
  6C   1pz       -0.000057 -0.000490  0.000025 -0.000005 -0.000067  0.000053
  6C   1px        0.000043  0.002463 -0.000418  0.000660  0.001588 -0.000624
  6C   1py        0.000124  0.005488 -0.000010 -0.000466 -0.000511 -0.000274
  7C   1s        -0.022592 -0.987846  0.013388  0.020729 -0.067722  0.007008
  7C   2s        -0.001010 -0.042265  0.000409 -0.002666  0.008785 -0.000714
  7C   1pz        0.000001 -0.000421 -0.000006  0.000338  0.000289  0.000029
  7C   1px        0.000001  0.001967  0.000170  0.001827 -0.003924  0.000428
  7C   1py       -0.000006  0.000192  0.000012 -0.006626 -0.002420 -0.000697
  8C   1s         0.000322  0.049267  0.000069  0.865166 -0.455345  0.151973
  8C   2s         0.000183  0.010850  0.000621  0.037447 -0.019705 -0.002324
  8C   1pz        0.000036  0.000085  0.000028  0.000172 -0.000104 -0.000346
  8C   1px        0.000050  0.003353 -0.000424 -0.001420  0.000981  0.005711
  8C   1py       -0.000170 -0.004991 -0.000063 -0.000894  0.000309  0.000471
  9C   1s        -0.000080 -0.001203 -0.044922 -0.129416  0.082240  0.971138
  9C   2s        -0.000028 -0.000940 -0.010682 -0.013123  0.007617  0.039384
  9C   1pz       -0.000007  0.000016 -0.000467  0.000318 -0.000163  0.000030
  9C   1px       -0.000016 -0.000385  0.002447 -0.005283  0.002940 -0.000012
  9C   1py        0.000005  0.000140  0.005465 -0.000315 -0.000042 -0.000800
 10C   1s         0.023446 -0.022297  0.000375  0.000349 -0.001301  0.000359
 10C   2s        -0.005578  0.005984 -0.000110 -0.000036  0.000072 -0.000060
 10C   1pz        0.004310  0.000183 -0.000004 -0.000005  0.000011 -0.000002
 10C   1px       -0.001787 -0.005243  0.000095  0.000045 -0.000219  0.000068
 10C   1py       -0.002826 -0.000310  0.000008  0.000090  0.000052 -0.000040
 11C   1s         0.990316 -0.022190  0.000161  0.000649 -0.000434  0.000175
 11C   2s         0.043032 -0.001016  0.000007  0.000021 -0.000011  0.000012
 11C   1pz       -0.000415  0.000086 -0.000000 -0.000004  0.000031 -0.000004
 11C   1px        0.000226 -0.000205  0.000001  0.000065 -0.000051  0.000022
 11C   1py        0.000274 -0.000072 -0.000000 -0.000011  0.000020 -0.000001
 12C   1s         0.000715 -0.000581  0.000005 -0.000007  0.000061  0.000008
 12C   2s        -0.000052 -0.000020  0.000001  0.000022 -0.000029  0.000005
 12C   1pz        0.000119 -0.000060  0.000001 -0.000003 -0.000015 -0.000001
 12C   1px       -0.000070 -0.000139 -0.000000  0.000013  0.000016  0.000005
 12C   1py       -0.000070 -0.000036  0.000001 -0.000000  0.000029 -0.000006
 13O   1s         0.000006  0.000108 -0.000002 -0.000018  0.000041 -0.000006
 13O   2s        -0.000042 -0.000821  0.000013  0.000128 -0.000274  0.000041
 13O   1pz        0.000031  0.000115 -0.000002 -0.000030  0.000071 -0.000010
 13O   1px       -0.000024  0.000507 -0.000008 -0.000075  0.000193 -0.000026
 13O   1py        0.000026  0.000247 -0.000004 -0.000050  0.000095 -0.000014
 14O   1s        -0.000017 -0.000010  0.000000  0.000001  0.000000  0.000000
 14O   2s         0.000122  0.000080 -0.000001 -0.000010 -0.000003 -0.000002
 14O   1pz       -0.000045 -0.000023  0.000000  0.000002 -0.000000  0.000000
 14O   1px       -0.000024 -0.000036  0.000000  0.000005  0.000003  0.000000
 14O   1py       -0.000033 -0.000037  0.000000  0.000005 -0.000004  0.000002
 15H   1s         0.000000 -0.000001 -0.000054  0.000005 -0.000005 -0.000096
 16H   1s         0.000000 -0.000001 -0.000004  0.000000 -0.000003 -0.000066
 17H   1s         0.000000 -0.000012 -0.000525  0.000048 -0.000043 -0.000414
 18H   1s        -0.000000 -0.000005 -0.000202  0.000001 -0.000009  0.000000
 19H   1s         0.000000  0.000000  0.000017  0.000001  0.000001  0.000020
 20H   1s         0.000000  0.000000 -0.000001  0.000000  0.000001  0.000017
 21H   1s         0.000000  0.000000  0.000031  0.000000  0.000001  0.000016
 22H   1s        -0.000000 -0.000014 -0.000613 -0.000010  0.000004 -0.000120
 23H   1s        -0.000000 -0.000013 -0.000729  0.000002 -0.000002 -0.000050
 24H   1s         0.000002  0.000097  0.000494 -0.000587 -0.001163  0.000940
 25H   1s        -0.000017 -0.000563 -0.000082  0.003927  0.007534 -0.000066
 26H   1s         0.000197 -0.000568 -0.000085 -0.007469  0.004029 -0.001153
 27H   1s        -0.000001  0.000098  0.000514  0.001283 -0.000733 -0.008362
 28H   1s        -0.000076  0.000097  0.000006 -0.000021  0.000155 -0.000020
 29H   1s        -0.008717  0.000268  0.000002  0.000047 -0.000006 -0.000015
 30H   1s        -0.008695  0.000360 -0.000004 -0.000020  0.000027 -0.000003
 31H   1s        -0.008701  0.000360 -0.000004 -0.000034  0.000024 -0.000011
 32H   1s        -0.000031  0.002326 -0.000036 -0.000326  0.000688 -0.000100
                     12        13        14        15        16        17   
                  -9.82058  -9.82039  -9.81957  -0.92826  -0.86046  -0.75007
                   2.00000   2.00000   2.00000   2.00000   2.00000   2.00000
                  --------  --------  --------  --------  --------  --------
  0C   1s         0.039467  0.004816 -0.989670  0.000006  0.000016 -0.012835
  0C   2s         0.001756  0.000254 -0.043049 -0.000018 -0.000039  0.033513
  0C   1pz       -0.000018  0.000007 -0.000466  0.000004  0.000012 -0.007533
  0C   1px       -0.000143  0.000038 -0.000136 -0.000010 -0.000011  0.000171
  0C   1py       -0.000035  0.000006 -0.000488  0.000001  0.000005 -0.004922
  1C   1s        -0.026097  0.000116 -0.026744  0.000010  0.000031 -0.025750
  1C   2s         0.005339 -0.000020  0.005858 -0.000022 -0.000075  0.067781
  1C   1pz       -0.000227  0.000001  0.003507  0.000006  0.000019 -0.010247
  1C   1px       -0.005324  0.000036  0.000966 -0.000008 -0.000020  0.006689
  1C   1py       -0.001138 -0.000050  0.003870 -0.000002 -0.000006  0.003816
  2C   1s        -0.989674  0.008483 -0.038866  0.000001  0.000006 -0.010489
  2C   2s        -0.043019  0.000351 -0.001658 -0.000004 -0.000016  0.027498
  2C   1pz       -0.000005  0.000003  0.000088  0.000000  0.000001 -0.001032
  2C   1px        0.000687 -0.000013  0.000093 -0.000002 -0.000007  0.007446
  2C   1py        0.000118 -0.000005  0.000119 -0.000001 -0.000002  0.001853
  3C   1s        -0.002791  0.002045 -0.002465  0.000040  0.000103 -0.045805
  3C   2s        -0.000071  0.000035 -0.000087 -0.000105 -0.000270  0.123256
  3C   1pz        0.000037 -0.000035  0.000120  0.000002  0.000005  0.002214
  3C   1px       -0.000164 -0.000172  0.000023 -0.000055 -0.000118  0.027714
  3C   1py       -0.000014 -0.000047  0.000064 -0.000005 -0.000011  0.001471
  4C   1s        -0.001556  0.049007  0.000832  0.000313  0.000564 -0.101675
  4C   2s         0.000015 -0.007510 -0.000123 -0.000741 -0.001364  0.260168
  4C   1pz        0.000071 -0.000032 -0.000023  0.000001 -0.000008 -0.001461
  4C   1px       -0.000124 -0.003711 -0.000055 -0.000287 -0.000462  0.043576
  4C   1py        0.000030  0.004061  0.000010 -0.000050 -0.000070  0.003309
  5C   1s         0.008487  0.973547  0.003969  0.000502  0.000772 -0.094030
  5C   2s         0.000358  0.039629  0.000163 -0.001218 -0.001884  0.239051
  5C   1pz        0.000001 -0.000069 -0.000025  0.000012 -0.000007 -0.003880
  5C   1px       -0.000003 -0.000021 -0.000001 -0.000525 -0.000621  0.020051
  5C   1py        0.000010  0.000764  0.000006 -0.000220 -0.000380  0.050536
  6C   1s         0.001200  0.134696  0.000478  0.001990  0.002019 -0.097539
  6C   2s        -0.000026 -0.003104 -0.000016 -0.004383 -0.004564  0.248541
  6C   1pz       -0.000004 -0.000347  0.000001  0.000177 -0.000081 -0.000524
  6C   1px        0.000050  0.005771  0.000024 -0.001114 -0.000709 -0.024316
  6C   1py        0.000006  0.000421 -0.000001 -0.001800 -0.001593  0.050065
  7C   1s         0.000044  0.007573  0.000045  0.007801  0.005061 -0.110613
  7C   2s        -0.000006 -0.000743 -0.000004 -0.017523 -0.011409  0.285302
  7C   1pz       -0.000001 -0.000042  0.000001 -0.003811 -0.003724  0.006830
  7C   1px        0.000001  0.000343  0.000004 -0.005939 -0.000806 -0.040825
  7C   1py        0.000006  0.000523 -0.000001 -0.001949 -0.000948 -0.003041
  8C   1s        -0.000093  0.028001  0.000974  0.002753  0.002552 -0.097714
  8C   2s         0.000004  0.000005 -0.000036 -0.006164 -0.005899  0.249255
  8C   1pz        0.000001 -0.000057 -0.000002 -0.000798 -0.000901  0.005565
  8C   1px       -0.000006  0.000739  0.000049 -0.002324 -0.001420 -0.015181
  8C   1py        0.000000  0.000286  0.000006  0.001557  0.001437 -0.053206
  9C   1s        -0.001141  0.115842  0.009702  0.000604  0.000883 -0.094013
  9C   2s        -0.000036  0.004513  0.000323 -0.001476 -0.002144  0.239039
  9C   1pz       -0.000005 -0.000007 -0.000075  0.000024 -0.000040  0.001456
  9C   1px        0.000001 -0.000009  0.000009 -0.000711 -0.000811  0.028687
  9C   1py       -0.000007  0.000093  0.000005  0.000112  0.000246 -0.046409
 10C   1s         0.000002  0.000403  0.000003  0.020869 -0.004118 -0.051878
 10C   2s        -0.000000 -0.000061 -0.000001 -0.051623  0.013117  0.141315
 10C   1pz       -0.000000 -0.000010  0.000000 -0.021682  0.001283 -0.000932
 10C   1px        0.000000  0.000089  0.000001 -0.006151  0.012561 -0.032962
 10C   1py        0.000000  0.000022 -0.000000 -0.008009  0.005414 -0.002462
 11C   1s         0.000000  0.000060  0.000001  0.004711 -0.004339 -0.023522
 11C   2s        -0.000000 -0.000002  0.000000 -0.011284  0.010345  0.062132
 11C   1pz       -0.000000 -0.000009  0.000000 -0.005316  0.004430  0.012337
 11C   1px       -0.000000  0.000005  0.000000  0.000062  0.001781 -0.009175
 11C   1py       -0.000000 -0.000004 -0.000000  0.001227  0.000122 -0.007561
 12C   1s        -0.000000 -0.000007 -0.000002  0.124382 -0.054657 -0.004204
 12C   2s        -0.000000  0.000003  0.000001 -0.303833  0.128396  0.011020
 12C   1pz        0.000000  0.000004  0.000000 -0.068360 -0.050576 -0.025486
 12C   1px       -0.000000 -0.000004 -0.000001 -0.024103  0.189584 -0.010483
 12C   1py       -0.000000 -0.000007 -0.000000 -0.025872  0.065724 -0.008770
 13O   1s        -0.000000 -0.000005 -0.000001  0.173847  0.143385  0.016453
 13O   2s         0.000000  0.000034  0.000006 -0.618572 -0.524329 -0.063573
 13O   1pz       -0.000000 -0.000009 -0.000002  0.131549  0.088582  0.003940
 13O   1px       -0.000000 -0.000026 -0.000005  0.006980  0.050156 -0.001780
 13O   1py       -0.000000 -0.000012 -0.000002  0.030251  0.037936  0.001005
 14O   1s        -0.000000 -0.000000 -0.000000  0.118952 -0.179268  0.005166
 14O   2s         0.000000  0.000001  0.000000 -0.408718  0.630569 -0.018505
 14O   1pz       -0.000000  0.000000 -0.000000  0.000141 -0.013690 -0.003721
 14O   1px       -0.000000 -0.000001 -0.000000  0.114685 -0.142953  0.003029
 14O   1py        0.000000  0.000001 -0.000000  0.047437 -0.062391  0.000637
 15H   1s        -0.000382 -0.000044  0.008723 -0.000002 -0.000005  0.005861
 16H   1s        -0.000375 -0.000041  0.008717 -0.000002 -0.000007  0.007018
 17H   1s        -0.000204 -0.000134  0.008728  0.000001 -0.000028  0.009832
 18H   1s         0.000103 -0.000128  0.000100 -0.000008 -0.000021  0.015350
 19H   1s         0.008719 -0.000070  0.000310 -0.000000 -0.000003  0.005692
 20H   1s         0.008719 -0.000073  0.000311 -0.000000 -0.000002  0.004978
 21H   1s         0.008709 -0.000065  0.000484 -0.000000 -0.000002  0.005571
 22H   1s        -0.000017 -0.000117  0.000011 -0.000015 -0.000042  0.024420
 23H   1s         0.000020 -0.000120  0.000163 -0.000013 -0.000040  0.024126
 24H   1s        -0.000079 -0.008413 -0.000036 -0.000122 -0.000231  0.043018
 25H   1s        -0.000008 -0.001021 -0.000004 -0.000717 -0.000795  0.045120
 26H   1s         0.000000 -0.000306 -0.000008 -0.001556 -0.001120  0.045541
 27H   1s         0.000012 -0.001103 -0.000102 -0.000147 -0.000271  0.042897
 28H   1s        -0.000000 -0.000058 -0.000000 -0.006714  0.002236  0.029160
 29H   1s         0.000000 -0.000001 -0.000000 -0.001948  0.002067  0.013904
 30H   1s        -0.000000 -0.000003 -0.000000 -0.001188  0.001143  0.013079
 31H   1s         0.000000 -0.000002 -0.000000 -0.003747  0.005726  0.010840
 32H   1s        -0.000000 -0.000088 -0.000017 -0.105252 -0.109118  0.001376
                     18        19        20        21        22        23   
                  -0.70637  -0.68225  -0.64355  -0.63720  -0.59200  -0.58421
                   2.00000   2.00000   2.00000   2.00000   2.00000   2.00000
                  --------  --------  --------  --------  --------  --------
  0C   1s        -0.071047 -0.066630 -0.004228 -0.056810  0.173023  0.025198
  0C   2s         0.190963  0.181875  0.011781  0.159591 -0.501432 -0.073153
  0C   1pz       -0.029189 -0.019257  0.000674 -0.000517 -0.019880 -0.019081
  0C   1px       -0.008169 -0.011662 -0.002676 -0.013165 -0.020665  0.014748
  0C   1py       -0.025913 -0.022388 -0.003298 -0.012212 -0.019467  0.001162
  1C   1s        -0.118009 -0.093549 -0.007758 -0.043303  0.000903 -0.007528
  1C   2s         0.319322  0.257062  0.021914  0.122334 -0.002563  0.023137
  1C   1pz       -0.016799  0.009168  0.004546  0.051302 -0.087813 -0.080077
  1C   1px        0.000626 -0.018680 -0.004063 -0.041656 -0.093767  0.073181
  1C   1py        0.013757  0.008566 -0.004195  0.001831 -0.082471  0.016412
  2C   1s        -0.069921 -0.071798 -0.009958 -0.067309 -0.135565  0.095978
  2C   2s         0.187970  0.195947  0.027851  0.189276  0.393223 -0.280052
  2C   1pz       -0.002124  0.001259  0.000835  0.009137 -0.020078 -0.019171
  2C   1px        0.038018  0.031127  0.002339  0.011824 -0.022378  0.024611
  2C   1py        0.009880  0.008478  0.000102  0.004541 -0.018021  0.004915
  3C   1s        -0.107033 -0.027435  0.009794  0.074524 -0.037729 -0.127837
  3C   2s         0.291391  0.074360 -0.027916 -0.212488  0.110280  0.375796
  3C   1pz        0.030323  0.035384  0.005598  0.033519 -0.020196 -0.017307
  3C   1px        0.007303 -0.042206 -0.007080 -0.056750 -0.026655 -0.010076
  3C   1py       -0.005130 -0.008977 -0.017505 -0.005328 -0.019509  0.002678
  4C   1s        -0.072806  0.063737  0.015461  0.099144  0.002879  0.011317
  4C   2s         0.192155 -0.169858 -0.042426 -0.273440 -0.008793 -0.031461
  4C   1pz        0.007831  0.008273  0.007052  0.000761 -0.008009  0.006888
  4C   1px       -0.035596 -0.054003  0.013366  0.032418 -0.023590 -0.133980
  4C   1py       -0.004644 -0.004878 -0.119659  0.023224 -0.004941 -0.001429
  5C   1s        -0.023031  0.061626 -0.118765  0.043587  0.011122  0.069071
  5C   2s         0.060821 -0.162558  0.323765 -0.120916 -0.031308 -0.194305
  5C   1pz        0.002493  0.002962 -0.002938 -0.001288 -0.001729  0.001868
  5C   1px       -0.043771  0.002845  0.074669  0.075346 -0.004451 -0.015907
  5C   1py        0.019529 -0.032435 -0.017616 -0.027574 -0.002574 -0.012030
  6C   1s         0.036279  0.016197 -0.136146 -0.048898  0.001778 -0.001716
  6C   2s        -0.095130 -0.041691  0.372150  0.133115 -0.004704  0.006743
  6C   1pz        0.003278 -0.004118  0.005169 -0.002841 -0.001331 -0.005764
  6C   1px       -0.031353  0.056381 -0.050203  0.036413  0.013814  0.096405
  6C   1py       -0.031818  0.012528 -0.015006  0.046244  0.008146  0.047938
  7C   1s         0.080308 -0.047821 -0.014130 -0.077265 -0.013122 -0.080864
  7C   2s        -0.213552  0.130198  0.038809  0.213651  0.037669  0.233722
  7C   1pz       -0.001602 -0.004995  0.009190  0.013145  0.001475  0.013430
  7C   1px       -0.015908  0.076212  0.002857 -0.080231  0.001166  0.034369
  7C   1py       -0.002572  0.009159 -0.127405  0.008459  0.004425 -0.005857
  8C   1s         0.037872  0.013474  0.117059 -0.085914 -0.006638 -0.003142
  8C   2s        -0.099594 -0.034201 -0.320348  0.234885  0.019084  0.011228
  8C   1pz        0.000116 -0.004014 -0.003701  0.004916 -0.000398  0.001290
  8C   1px       -0.036298  0.059503  0.065954  0.019316  0.012443  0.082830
  8C   1py        0.026055 -0.002807 -0.019118 -0.035555 -0.004544 -0.030936
  9C   1s        -0.021129  0.061208  0.128804  0.003077  0.007770  0.053433
  9C   2s         0.055886 -0.161353 -0.351480 -0.010110 -0.021844 -0.150182
  9C   1pz        0.004930 -0.000875  0.003925 -0.006294 -0.004261  0.000355
  9C   1px       -0.039587 -0.000834 -0.048749  0.087587  0.004472 -0.017818
  9C   1py       -0.026323  0.032940 -0.016328  0.047169  0.003562  0.011944
 10C   1s         0.078994 -0.121560  0.004327  0.065456 -0.001658 -0.029322
 10C   2s        -0.218604  0.339971 -0.012127 -0.186641  0.005303  0.090343
 10C   1pz        0.006658 -0.019146  0.008744  0.037369  0.008374  0.065096
 10C   1px        0.023283 -0.003319 -0.009464 -0.063904 -0.011682 -0.073994
 10C   1py       -0.001301  0.009608 -0.023640 -0.023147 -0.004722 -0.043525
 11C   1s         0.049073 -0.095967  0.021044  0.108074  0.014847  0.103995
 11C   2s        -0.133013  0.264026 -0.059501 -0.306094 -0.043363 -0.305442
 11C   1pz       -0.020837  0.033584 -0.002968 -0.016704  0.002430  0.025345
 11C   1px        0.011865 -0.014539  0.003128 -0.003167 -0.002857 -0.020003
 11C   1py        0.013120 -0.021478 -0.002243  0.011805 -0.001270 -0.016271
 12C   1s         0.010980 -0.021150  0.001858  0.016512 -0.000644 -0.011147
 12C   2s        -0.030872  0.061059 -0.005914 -0.049956  0.001875  0.033644
 12C   1pz        0.039717 -0.063807  0.006197  0.039172 -0.000753 -0.016646
 12C   1px        0.023343 -0.041167  0.004852  0.027135 -0.001028 -0.015229
 12C   1py        0.017381 -0.030350 -0.001160  0.020667 -0.000908 -0.016102
 13O   1s        -0.016266  0.019180 -0.000749 -0.002428  0.001636  0.014135
 13O   2s         0.063875 -0.075792  0.002786  0.008985 -0.006858 -0.059391
 13O   1pz        0.000465 -0.004881  0.001053  0.005904 -0.000731 -0.008587
 13O   1px        0.000972  0.001525  0.000459 -0.007189 -0.000344  0.000936
 13O   1py        0.000014 -0.000627 -0.001916  0.000260 -0.000147 -0.002101
 14O   1s        -0.011682  0.021429 -0.002405 -0.017700 -0.000576  0.000004
 14O   2s         0.043242 -0.080657  0.009355  0.068853  0.002392  0.000731
 14O   1pz        0.007077 -0.013015  0.001870  0.011565  0.000577  0.001541
 14O   1px       -0.005317  0.008264 -0.000554 -0.004713 -0.000323 -0.002346
 14O   1py       -0.001004  0.001229 -0.000785 -0.000276 -0.000283 -0.003502
 15H   1s         0.040252  0.042745  0.003950  0.046013 -0.145646 -0.033015
 16H   1s         0.042968  0.042666  0.002084  0.040997 -0.143027 -0.021462
 17H   1s         0.043099  0.037689 -0.000248  0.034061 -0.155307 -0.015563
 18H   1s         0.071881  0.058173  0.008790  0.028343 -0.001240  0.004144
 19H   1s         0.042311  0.046138  0.006753  0.048634  0.112593 -0.081320
 20H   1s         0.039777  0.045426  0.007442  0.052782  0.107931 -0.094104
 21H   1s         0.040871  0.044162  0.007002  0.045364  0.127710 -0.078172
 22H   1s         0.065392  0.019175 -0.015114 -0.051918  0.030821  0.112709
 23H   1s         0.064451  0.018218 -0.001107 -0.056222  0.050312  0.112459
 24H   1s         0.017456 -0.034087  0.087664 -0.038005 -0.007132 -0.052419
 25H   1s        -0.022895 -0.003065  0.101585  0.031641 -0.001093  0.008818
 26H   1s        -0.024491  0.000269 -0.089331  0.057007  0.006043  0.003103
 27H   1s         0.015854 -0.034235 -0.096190 -0.007196 -0.007489 -0.037372
 28H   1s        -0.049924  0.082156  0.007120 -0.051642  0.001259  0.030889
 29H   1s        -0.030309  0.061278 -0.019338 -0.075301 -0.012169 -0.091338
 30H   1s        -0.029448  0.060688 -0.014261 -0.077486 -0.012700 -0.092254
 31H   1s        -0.027315  0.059534 -0.014666 -0.082278 -0.013691 -0.097946
 32H   1s         0.000827 -0.006607  0.001904  0.014952  0.001087  0.005090
                     24        25        26        27        28        29   
                  -0.54646  -0.51506  -0.49170  -0.47396  -0.44514  -0.41338
                   2.00000   2.00000   2.00000   2.00000   2.00000   2.00000
                  --------  --------  --------  --------  --------  --------
  0C   1s         0.023638 -0.001878  0.043722 -0.052238  0.000650  0.002836
  0C   2s        -0.070628  0.006077 -0.136296  0.165306 -0.001868 -0.009854
  0C   1pz       -0.020887 -0.003002 -0.056302  0.065465 -0.005636  0.021258
  0C   1px        0.003038  0.000399 -0.004347  0.001356 -0.003310  0.026277
  0C   1py       -0.012372  0.014449 -0.072866  0.128192  0.000654 -0.036956
  1C   1s        -0.027392  0.013995 -0.090385  0.116987 -0.002145  0.000899
  1C   2s         0.083832 -0.043845  0.287917 -0.378710  0.007287 -0.003204
  1C   1pz       -0.054088 -0.009555 -0.019602 -0.059577 -0.007197  0.068254
  1C   1px        0.035090 -0.016693  0.043313 -0.064194 -0.005163  0.047405
  1C   1py       -0.003424  0.025801 -0.057392  0.112951  0.010415 -0.061681
  2C   1s         0.044846 -0.007412  0.051085 -0.042000  0.001650 -0.007265
  2C   2s        -0.134487  0.022865 -0.159454  0.132841 -0.005210  0.023391
  2C   1pz       -0.016104 -0.003883 -0.009269 -0.026596 -0.004003  0.048811
  2C   1px        0.033005 -0.012513  0.103828 -0.126520  0.004541 -0.022657
  2C   1py        0.003980  0.005198 -0.000096  0.019302  0.005494 -0.043628
  3C   1s        -0.063650 -0.016171  0.002395 -0.069743 -0.005499  0.023649
  3C   2s         0.191848  0.049935 -0.008917  0.220923  0.019018 -0.080771
  3C   1pz        0.005713 -0.015872  0.079852 -0.136855  0.000814  0.009302
  3C   1px       -0.053070 -0.018486 -0.086245 -0.050830 -0.015984  0.152011
  3C   1py       -0.018324  0.068742 -0.038573  0.054071  0.015026 -0.017193
  4C   1s         0.058561  0.009245  0.084353  0.048946 -0.008472 -0.031693
  4C   2s        -0.171410 -0.027808 -0.256188 -0.149238  0.024699  0.109640
  4C   1pz        0.006597 -0.014255  0.013952 -0.025186 -0.005816  0.012265
  4C   1px       -0.061835 -0.034073  0.008338 -0.101995  0.032867 -0.130026
  4C   1py       -0.041846  0.213175  0.012763 -0.023593  0.033017 -0.015846
  5C   1s         0.008760  0.099565 -0.033412 -0.026628  0.025143  0.000115
  5C   2s        -0.026929 -0.297411  0.102556  0.084582 -0.083655  0.007843
  5C   1pz       -0.000803 -0.009447  0.007095 -0.007699 -0.011253  0.011762
  5C   1px        0.055148  0.137763  0.104976  0.056025  0.056342 -0.137531
  5C   1py       -0.038334  0.012311 -0.128372 -0.126005  0.089168 -0.125890
  6C   1s        -0.037824 -0.102875 -0.044316 -0.026605 -0.017743  0.003729
  6C   2s         0.111233  0.308169  0.136076  0.084898  0.053796 -0.004002
  6C   1pz       -0.002885 -0.007707  0.013631  0.006908 -0.009863 -0.022016
  6C   1px       -0.011050  0.131435 -0.063970 -0.042884 -0.023479  0.157920
  6C   1py        0.011045 -0.000029 -0.149527 -0.121794  0.080740 -0.109891
  7C   1s        -0.019316  0.000802  0.085942  0.042093 -0.013353 -0.035244
  7C   2s         0.055131 -0.003687 -0.263033 -0.129570  0.037654  0.121763
  7C   1pz       -0.013991  0.005095  0.003660 -0.002556  0.001475 -0.064577
  7C   1px       -0.126956 -0.005690  0.022777  0.013543 -0.122075  0.186272
  7C   1py        0.030576 -0.218244 -0.022396  0.036677 -0.003295 -0.002843
  8C   1s        -0.061252  0.085308 -0.032732 -0.044876  0.004203  0.007795
  8C   2s         0.179052 -0.255545  0.100526  0.141920 -0.016996 -0.017291
  8C   1pz       -0.006633  0.003909  0.000151 -0.008010 -0.003016 -0.038459
  8C   1px        0.049347 -0.127878 -0.129325 -0.002418  0.010561  0.112400
  8C   1py       -0.008976 -0.018259  0.135622  0.116603 -0.097774  0.137622
  9C   1s         0.048630 -0.091335 -0.055561  0.005380  0.014875 -0.006939
  9C   2s        -0.142877  0.272465  0.169978 -0.014557 -0.050488  0.030986
  9C   1pz       -0.007756  0.004490 -0.011541 -0.016176  0.001311 -0.004417
  9C   1px        0.076841 -0.114933  0.076561  0.039408  0.013513 -0.148012
  9C   1py        0.044234  0.009492  0.150471  0.122236 -0.088796  0.110618
 10C   1s         0.110754  0.017926 -0.030234 -0.004341  0.042919  0.010644
 10C   2s        -0.344298 -0.058389  0.097346  0.014135 -0.136668 -0.037841
 10C   1pz       -0.114384 -0.038154  0.051021  0.028346  0.090387 -0.086292
 10C   1px       -0.018222  0.007775  0.106957  0.043515  0.035281 -0.218267
 10C   1py        0.065727 -0.058871 -0.009741  0.021475  0.103162 -0.033669
 11C   1s        -0.111804 -0.027472  0.015666  0.005575 -0.018219 -0.003121
 11C   2s         0.337470  0.084327 -0.049456 -0.017754  0.059754  0.010516
 11C   1pz       -0.084033 -0.034577  0.038109  0.017542 -0.027446 -0.077072
 11C   1px        0.016453  0.022133  0.019684  0.003867  0.025641 -0.120630
 11C   1py        0.054969 -0.003782 -0.016495  0.006184  0.069464  0.007337
 12C   1s         0.063771  0.024546 -0.050859 -0.029043 -0.127136  0.012626
 12C   2s        -0.203222 -0.081250  0.171136  0.099891  0.453433 -0.033691
 12C   1pz        0.085874  0.031287 -0.033835 -0.007728  0.148020  0.231552
 12C   1px        0.074000  0.035406 -0.046994 -0.029658 -0.131024 -0.015285
 12C   1py        0.076107  0.008250 -0.044740 -0.013597 -0.004542  0.074517
 13O   1s        -0.029691 -0.012118  0.012539  0.007420  0.029278 -0.009598
 13O   2s         0.125343  0.051882 -0.053665 -0.032137 -0.130431  0.041954
 13O   1pz        0.042651  0.022194 -0.039803 -0.027422 -0.163279 -0.026758
 13O   1px       -0.042866 -0.016340  0.071305  0.051245  0.407847  0.222917
 13O   1py        0.000771 -0.008144  0.012518  0.014194  0.122645  0.088971
 14O   1s        -0.030419 -0.011220  0.029084  0.016446  0.074905 -0.004301
 14O   2s         0.123736  0.046555 -0.123671 -0.070805 -0.329593  0.016868
 14O   1pz        0.016528  0.006884 -0.011905 -0.003455  0.045148  0.097557
 14O   1px        0.011635  0.008944 -0.021158 -0.016262 -0.106467 -0.011737
 14O   1py        0.017050  0.002334 -0.016867 -0.007442 -0.026558  0.027262
 15H   1s        -0.031467 -0.001005 -0.065328  0.073393 -0.003654  0.013198
 16H   1s        -0.025082  0.010957 -0.072831  0.116464  0.001618 -0.039683
 17H   1s        -0.024525  0.006009 -0.057821  0.069156 -0.004177  0.014646
 18H   1s         0.026739 -0.037893  0.132232 -0.214026 -0.009375  0.069128
 19H   1s        -0.045009  0.014859 -0.083069  0.102977  0.000751 -0.021371
 20H   1s        -0.054982  0.006928 -0.078267  0.054160 -0.006092  0.052531
 21H   1s        -0.039864  0.007678 -0.062260  0.065923 -0.003607  0.011634
 22H   1s         0.059123  0.061031 -0.013114  0.146410  0.016626 -0.083360
 23H   1s         0.071728 -0.006090 -0.000188  0.117312  0.000085 -0.055620
 24H   1s        -0.000640 -0.144607  0.082018  0.082361 -0.098966  0.118272
 25H   1s         0.026188  0.151207  0.101775  0.076397 -0.031809  0.117407
 26H   1s         0.069203 -0.130266  0.076942  0.116898 -0.054593  0.110799
 27H   1s        -0.050150  0.138449  0.107491  0.044855 -0.069143  0.126634
 28H   1s        -0.136198  0.022364  0.062976  0.004204 -0.111679 -0.036967
 29H   1s         0.129806  0.013579 -0.028895  0.001150  0.055554  0.049141
 30H   1s         0.125393  0.042273 -0.034467 -0.017901  0.010945  0.070580
 31H   1s         0.113766  0.038359 -0.006280 -0.003751  0.034654 -0.085880
 32H   1s         0.037958  0.014859 -0.062339 -0.042776 -0.301366 -0.165609
                     30        31        32        33        34        35   
                  -0.39890  -0.38519  -0.37259  -0.35670  -0.35270  -0.34822
                   2.00000   2.00000   2.00000   2.00000   2.00000   2.00000
                  --------  --------  --------  --------  --------  --------
  0C   1s         0.008766  0.011168 -0.011840  0.001041  0.006096  0.006950
[...]
  0-1A  -> 17-1A    8.124003   65524.5   152.6   0.114765607   0.57661  -0.70606  -0.09473   0.26291
  0-1A  -> 18-1A    8.180484   65980.1   151.6   0.088610832   0.44213   0.19150   0.63579  -0.03498
  0-1A  -> 19-1A    8.206309   66188.4   151.1   0.048815346   0.24280  -0.38972   0.30153  -0.00123
  0-1A  -> 20-1A    8.226879   66354.3   150.7   0.005521361   0.02739  -0.07756  -0.14446  -0.02255
  0-1A  -> 21-1A    8.265895   66668.9   150.0   0.016231821   0.08015   0.23085   0.11717  -0.11459
  0-1A  -> 22-1A    8.291878   66878.5   149.5   0.111088272   0.54684   0.69053   0.22268  -0.14286
  0-1A  -> 23-1A    8.335289   67228.6   148.7   0.003319381   0.01625  -0.11068  -0.04231  -0.04707
  0-1A  -> 24-1A    8.390468   67673.7   147.8   0.025855496   0.12578   0.33448   0.09936  -0.06345
  0-1A  -> 25-1A    8.397206   67728.0   147.6   0.009233327   0.04488   0.19322   0.04472  -0.07449
  0-1A  -> 26-1A    8.431876   68007.7   147.0   0.008579396   0.04153  -0.10706  -0.17321   0.00811
  0-1A  -> 27-1A    8.675003   69968.6   142.9   0.026771427   0.12596  -0.18437   0.30295  -0.01384
  0-1A  -> 28-1A    8.709484   70246.7   142.4   0.425458189   1.99391  -1.40973  -0.06790   0.04441
  0-1A  -> 29-1A    8.714448   70286.8   142.3   0.128016717   0.59961  -0.71530  -0.29572  -0.02257
  0-1A  -> 30-1A    8.748866   70564.4   141.7   0.001176180   0.00549  -0.05742  -0.03858  -0.02651

----------------------------------------------------------------------------------------------------
                     ABSORPTION SPECTRUM VIA TRANSITION VELOCITY DIPOLE MOMENTS    
----------------------------------------------------------------------------------------------------
     Transition      Energy     Energy  Wavelength fosc(P2)      P2        PX        PY        PZ   
                      (eV)      (cm-1)    (nm)                 (au**2)    (au)      (au)      (au)  
----------------------------------------------------------------------------------------------------
  0-1A  ->  1-1A    4.208766   33946.0   294.6   0.003221231   0.00075   0.02698   0.00315  -0.00309
  0-1A  ->  2-1A    4.292257   34619.4   288.9   0.001238712   0.00029   0.01349  -0.01017   0.00279
  0-1A  ->  3-1A    4.946929   39899.7   250.6   0.000126085   0.00003  -0.00260  -0.00454  -0.00265
  0-1A  ->  4-1A    5.006277   40378.4   247.7   0.000143979   0.00004  -0.00328   0.00535   0.00060
  0-1A  ->  5-1A    5.256465   42396.3   235.9   0.000101801   0.00003  -0.00347   0.00140   0.00394
  0-1A  ->  6-1A    5.941399   47920.6   208.7   0.000094832   0.00003   0.00102   0.00547   0.00036
  0-1A  ->  7-1A    6.426557   51833.7   192.9   0.000466559   0.00017  -0.00037   0.01132  -0.00608
  0-1A  ->  8-1A    6.626248   53444.3   187.1   0.000012653   0.00000   0.00101   0.00025  -0.00188
  0-1A  ->  9-1A    7.161981   57765.3   173.1   0.104968765   0.04144  -0.19282  -0.03327   0.05617
  0-1A  -> 10-1A    7.312216   58977.0   169.6   0.000723459   0.00029   0.01065   0.00725   0.01121
  0-1A  -> 11-1A    7.544922   60853.9   164.3   0.000357833   0.00015  -0.01160   0.00265   0.00270
  0-1A  -> 12-1A    7.708408   62172.5   160.8   0.002981045   0.00127   0.00896   0.00064  -0.03444
  0-1A  -> 13-1A    7.833896   63184.6   158.3   0.014531782   0.00628  -0.07524  -0.01525   0.01954
  0-1A  -> 14-1A    7.860926   63402.7   157.7   0.000118383   0.00005   0.00074   0.00084  -0.00708
  0-1A  -> 15-1A    7.938945   64031.9   156.2   0.000898694   0.00039  -0.01923  -0.00402   0.00272
  0-1A  -> 16-1A    8.075625   65134.3   153.5   0.000060537   0.00003  -0.00440   0.00232   0.00149
  0-1A  -> 17-1A    8.124003   65524.5   152.6   0.002878388   0.00129  -0.00926  -0.02276   0.02618
  0-1A  -> 18-1A    8.180484   65980.1   151.6   0.003908277   0.00176   0.01566   0.00591  -0.03850
  0-1A  -> 19-1A    8.206309   66188.4   151.1   0.015257615   0.00690  -0.00698  -0.03982   0.07258
  0-1A  -> 20-1A    8.226879   66354.3   150.7   0.001938113   0.00088  -0.01132  -0.01717   0.02136
  0-1A  -> 21-1A    8.265895   66668.9   150.0   0.018661285   0.00850  -0.07800   0.03617   0.03332
  0-1A  -> 22-1A    8.291878   66878.5   149.5   0.005513772   0.00252  -0.01460  -0.04412  -0.01899
  0-1A  -> 23-1A    8.335289   67228.6   148.7   0.001689877   0.00078   0.02653  -0.00278  -0.00804
  0-1A  -> 24-1A    8.390468   67673.7   147.8   0.005667586   0.00262  -0.04389  -0.01916   0.01809
  0-1A  -> 25-1A    8.397206   67728.0   147.6   0.007138190   0.00330  -0.04911   0.01179   0.02744
  0-1A  -> 26-1A    8.431876   68007.7   147.0   0.000805232   0.00037   0.01425   0.01257   0.00366
  0-1A  -> 27-1A    8.675003   69968.6   142.9   0.001168721   0.00056   0.02308  -0.00147   0.00489
  0-1A  -> 28-1A    8.709484   70246.7   142.4   0.070793588   0.03399   0.18040   0.03548  -0.01359
  0-1A  -> 29-1A    8.714448   70286.8   142.3   0.010759698   0.00517   0.06704   0.02058   0.01582
  0-1A  -> 30-1A    8.748866   70564.4   141.7   0.000089311   0.00004   0.00185   0.00527  -0.00344

------------------------------------------------------------------------------------------
                     CD SPECTRUM VIA TRANSITION ELECTRIC DIPOLE MOMENTS    
------------------------------------------------------------------------------------------
     Transition      Energy     Energy  Wavelength    R        MX        MY        MZ   
                      (eV)      (cm-1)    (nm)   (1e40*cgs)   (au)      (au)      (au)  
------------------------------------------------------------------------------------------
  0-1A  ->  1-1A    4.208766   33946.0   294.6   13.82277   0.04026  -0.10599   0.04145
  0-1A  ->  2-1A    4.292257   34619.4   288.9  -14.97419  -0.02451  -0.08428  -0.04945
  0-1A  ->  3-1A    4.946929   39899.7   250.6   -5.30557   0.43540   0.19033  -0.02556
  0-1A  ->  4-1A    5.006277   40378.4   247.7    1.12248  -0.13892  -0.06998  -0.04603
  0-1A  ->  5-1A    5.256465   42396.3   235.9    0.15560   0.00017  -0.01086  -0.00236
  0-1A  ->  6-1A    5.941399   47920.6   208.7   -0.04214  -0.01036  -0.01040  -0.02891
  0-1A  ->  7-1A    6.426557   51833.7   192.9   -1.22283  -0.10681   0.00494   0.04443
  0-1A  ->  8-1A    6.626248   53444.3   187.1    0.02235   0.00583   0.00094  -0.00417
  0-1A  ->  9-1A    7.161981   57765.3   173.1    2.79976  -0.04037   0.23797  -0.06607
  0-1A  -> 10-1A    7.312216   58977.0   169.6   -2.04083   0.10070  -0.28643   0.06894
  0-1A  -> 11-1A    7.544922   60853.9   164.3    3.11428  -0.03843  -0.04586   0.04429
  0-1A  -> 12-1A    7.708408   62172.5   160.8    2.34502   0.03335  -0.07643  -0.00855
  0-1A  -> 13-1A    7.833896   63184.6   158.3    2.11020  -0.01470   0.07977  -0.04924
  0-1A  -> 14-1A    7.860926   63402.7   157.7   -1.32858   0.01690  -0.01537   0.00314
  0-1A  -> 15-1A    7.938945   64031.9   156.2    0.55051   0.01388   0.02063  -0.04511
  0-1A  -> 16-1A    8.075625   65134.3   153.5    6.69148   0.14227   0.04315  -0.01174
  0-1A  -> 17-1A    8.124003   65524.5   152.6   19.51028   0.01654   0.01816  -0.10645
  0-1A  -> 18-1A    8.180484   65980.1   151.6   -8.42277  -0.02989   0.03653  -0.01041
  0-1A  -> 19-1A    8.206309   66188.4   151.1   57.43552   0.17760  -0.17528  -0.19476
  0-1A  -> 20-1A    8.226879   66354.3   150.7    0.83917   0.09791  -0.02263  -0.11287
  0-1A  -> 21-1A    8.265895   66668.9   150.0   29.51712  -0.25886   0.19321   0.22244
  0-1A  -> 22-1A    8.291878   66878.5   149.5  -93.52976   0.12979   0.33993  -0.23146
  0-1A  -> 23-1A    8.335289   67228.6   148.7    6.33037   0.04394   0.22551  -0.02074
  0-1A  -> 24-1A    8.390468   67673.7   147.8   -9.67688   0.01963   0.02507  -0.18073
  0-1A  -> 25-1A    8.397206   67728.0   147.6    9.49992  -0.06665   0.03709   0.11990
  0-1A  -> 26-1A    8.431876   68007.7   147.0   -2.52929   0.06446  -0.06630   0.09639
  0-1A  -> 27-1A    8.675003   69968.6   142.9   12.28823   0.01296  -0.07566   0.05436
  0-1A  -> 28-1A    8.709484   70246.7   142.4   16.46253   0.03413  -0.12616   0.10410
  0-1A  -> 29-1A    8.714448   70286.8   142.3  -20.54631  -0.00318  -0.14356   0.05073
  0-1A  -> 30-1A    8.748866   70564.4   141.7   -0.00825  -0.01946   0.02273   0.00841

------------------------------------------------------------------------------------------
                     CD SPECTRUM VIA TRANSITION VELOCITY DIPOLE MOMENTS    
------------------------------------------------------------------------------------------
     Transition      Energy     Energy  Wavelength    R        MX        MY        MZ   
                      (eV)      (cm-1)    (nm)   (1e40*cgs)   (au)      (au)      (au)  
------------------------------------------------------------------------------------------
  0-1A  ->  1-1A    4.208766   33946.0   294.6    1.90365   0.04026  -0.10599   0.04145
  0-1A  ->  2-1A    4.292257   34619.4   288.9    1.16187  -0.02451  -0.08428  -0.04945
  0-1A  ->  3-1A    4.946929   39899.7   250.6   -4.99853   0.43540   0.19033  -0.02556
  0-1A  ->  4-1A    5.006277   40378.4   247.7    0.13680  -0.13892  -0.06998  -0.04603
  0-1A  ->  5-1A    5.256465   42396.3   235.9   -0.06125   0.00017  -0.01086  -0.00236
  0-1A  ->  6-1A    5.941399   47920.6   208.7   -0.16793  -0.01036  -0.01040  -0.02891
  0-1A  ->  7-1A    6.426557   51833.7   192.9   -0.34898  -0.10681   0.00494   0.04443
  0-1A  ->  8-1A    6.626248   53444.3   187.1    0.02707   0.00583   0.00094  -0.00417
  0-1A  ->  9-1A    7.161981   57765.3   173.1   -6.88442  -0.04037   0.23797  -0.06607
  0-1A  -> 10-1A    7.312216   58977.0   169.6   -0.40344   0.10070  -0.28643   0.06894
  0-1A  -> 11-1A    7.544922   60853.9   164.3    0.75440  -0.03843  -0.04586   0.04429
  0-1A  -> 12-1A    7.708408   62172.5   160.8    0.90592   0.03335  -0.07643  -0.00855
  0-1A  -> 13-1A    7.833896   63184.6   158.3   -1.75576  -0.01470   0.07977  -0.04924
  0-1A  -> 14-1A    7.860926   63402.7   157.7   -0.03693   0.01690  -0.01537   0.00314
  0-1A  -> 15-1A    7.938945   64031.9   156.2   -0.76344   0.01388   0.02063  -0.04511
  0-1A  -> 16-1A    8.075625   65134.3   153.5   -0.86243   0.14227   0.04315  -0.01174
  0-1A  -> 17-1A    8.124003   65524.5   152.6   -5.29445   0.01654   0.01816  -0.10645
  0-1A  -> 18-1A    8.180484   65980.1   151.6    0.23307  -0.02989   0.03653  -0.01041
  0-1A  -> 19-1A    8.206309   66188.4   151.1  -13.12461   0.17760  -0.17528  -0.19476
  0-1A  -> 20-1A    8.226879   66354.3   150.7   -4.88148   0.09791  -0.02263  -0.11287
  0-1A  -> 21-1A    8.265895   66668.9   150.0   53.68836  -0.25886   0.19321   0.22244
  0-1A  -> 22-1A    8.291878   66878.5   149.5  -19.33524   0.12979   0.33993  -0.23146
  0-1A  -> 23-1A    8.335289   67228.6   148.7    1.08640   0.04394   0.22551  -0.02074
  0-1A  -> 24-1A    8.390468   67673.7   147.8   -7.05250   0.01963   0.02507  -0.18073
  0-1A  -> 25-1A    8.397206   67728.0   147.6   10.69542  -0.06665   0.03709   0.11990
  0-1A  -> 26-1A    8.431876   68007.7   147.0    0.66662   0.06446  -0.06630   0.09639
  0-1A  -> 27-1A    8.675003   69968.6   142.9    1.00022   0.01296  -0.07566   0.05436
  0-1A  -> 28-1A    8.709484   70246.7   142.4    0.39102   0.03413  -0.12616   0.10410
  0-1A  -> 29-1A    8.714448   70286.8   142.3   -3.48255  -0.00318  -0.14356   0.05073
  0-1A  -> 30-1A    8.748866   70564.4   141.7    0.08040  -0.01946   0.02273   0.00841

Total run time:       24.346 sec

           *** ORCA-CIS/TD-DFT FINISHED WITHOUT ERROR ***
-----------------------
CIS/TD-DFT TOTAL ENERGY
-----------------------

    E(SCF)  =   -648.750519761 Eh
    DE(CIS) =      0.154669323 Eh (Root  1)
    ----------------------------- ---------
    E(tot)  =   -648.595850438 Eh


Maximum memory used throughout the entire CIS-calculation: 82.3 MB
=> NOW LEAVING ORCA_CIS

-------------------------   --------------------
FINAL SINGLE POINT ENERGY      -648.595850438388
-------------------------   --------------------


------------------------------------------------------------------------------
                              ORCA PROPERTY CALCULATIONS
------------------------------------------------------------------------------

GBWName                                 ... Ibuprofen\Ibuprofen_TPSS_STO-3G\Ibuprofen_TPSS_STO-3G.orcainp.gbw
Number of atoms                         ...     33
Number of basis functions               ...     93
Max core memory                         ...   1024 MB

Electric properties:
Dipole moment                           ... YES
Quadrupole moment                       ...  NO
Static polarizability (Dipole/Dipole)   ...  NO
Static polarizability (Dipole/Quad.)    ...  NO
Static polarizability (Quad./Quad.)     ...  NO
Static polarizability (Velocity)        ...  NO

Atomic electric properties:
Dipole moment                           ...  NO
Quadrupole moment                       ...  NO
Static polarizability                   ...  NO

Choice of electric origin               ... Center of mass
Position of electric origin             ...    11.714285    -0.678746    -1.452441

General magnetic properties:
Magnetizability                         ...  NO

EPR properties:
g-Tensor (aka g-matrix)                 ...  NO
Zero-Field splitting spin-orbit         ...  NO
Zero-field splitting spin-spin          ...  NO
Hyperfine couplings                     ...  NO (   0 nuclei)
Quadrupole couplings                    ...  NO (   0 nuclei)
Contact density                         ...  NO (   0 nuclei)

NMR properties:
Chemical shifts                         ...  NO (   0 nuclei)
Spin-rotation constants                 ...  NO (   0 nuclei)
Spin-spin couplings                     ...  NO (   0 nuclei,    0 pairs)

Choice of magnetic origin               ... GIAO
Position of magnetic origin             ...     0.000000     0.000000     0.000000

Properties with geometric perturbations:
SCF Hessian                             ...  NO
IR spectrum                             ...  NO
VCD spectrum                            ...  NO
X-ray spectroscopy properties:
SCF XES/XAS/RIXS spectra                ...  NO


-------------
DIPOLE MOMENT
-------------

Method             : SCF
Type of density    : Electron Density
Multiplicity       :   1
Irrep              :   0
Energy             :  -648.7505197609365268 Eh
Relativity type    : 
Basis              : AO
                                X                 Y                 Z
Electronic contribution:     20.227468432       2.295144308      -0.093303745
Nuclear contribution   :    -21.580521849      -2.888480765      -0.374766514
                        -----------------------------------------
Total Dipole Moment    :     -1.353053417      -0.593336457      -0.468070260
                        -----------------------------------------
Magnitude (a.u.)       :      1.549803687
Magnitude (Debye)      :      3.939287911



--------------------
Rotational spectrum 
--------------------
 
Rotational constants in cm-1:             0.046367             0.008286             0.007777 
Rotational constants in MHz :          1390.047537           248.419351           233.138547 

Dipole components along the rotational axes: 
x,y,z [a.u.] :     1.369569    -0.699119     0.193405 
x,y,z [Debye]:     3.481167    -1.777019     0.491597 

 

Dipole moment calculation done in   0.0 sec 

Maximum memory used throughout the entire PROP-calculation: 7.2 MB

--------------------------------
SUGGESTED CITATIONS FOR THIS RUN
--------------------------------

Below you find a list of papers that are relevant to this ORCA run
We neither can nor want to force you to cite these papers, but we appreciate if you do
You receive ORCA, which is the product of decades of hard work by many enthusiastic individuals, for free
The only thing we kindly ask in return is that you cite our papers,
We deeply appreciate it, if you show your appreciation for ORCA by not just citing the generic ORCA reference.

Please note that relegating all ORCA citations to the supporting information does *not* help us.
SI sections are not indexed - citations you put there will not count into any citation statistics
But we need these citations in order to attract the funding resources that allow us to do what we are doing

Therefore, if you are a happy ORCA user, please consider citing a few of the papers listed below in the main body of your paper

In addition to the list printed below, the program has created the file Ibuprofen\Ibuprofen_TPSS_STO-3G\Ibuprofen_TPSS_STO-3G.orcainp.bibtex that contains the list in bibtex format
You can import this file easily into all common literature databanks and citation aid programs


List of essential papers. We consider these as the minimum necessary citations

  1. Neese,F.
     Software update: the ORCA program system, version 5.0
     WIRES Comput. Molec. Sci., 2022 12(1)e1606
     doi.org/10.1002/wcms.1606

List of papers to cite with high priority. The work reported in these papers was absolutely
necessary for this run to complete.
Our perspective: the developers of density functionals and basis sets usually get cited in chemistry papers
Good! But without the algorithms to do something with them, the functionals or basis sets would not do anything.
Hence, in our opinion, the algorithm design and method developments papers are equally worthy of getting cited

  1. Neese,F.; Olbrich,G.
     Efficient use of the resolution of the identity approximation in time-dependent density functional calculations with hybrid density functionals
     Chem. Phys. Lett., 2002 362 170-178
     doi.org/10.1016/s0009-2614(02)01053-9
  2. Neese,F.
     An improvement of the resolution of the identity approximation for the formation of the Coulomb matrix
     J. Comp. Chem., 2003 24(14)1740-1747
     doi.org/10.1002/jcc.10318
  3. Garcia-Rates,M.; Neese,F.
     Effect of the Solute Cavity on the Solvation Energy and its Derivatives within the Framework of the Gaussian Charge Scheme
     J. Comput. Chem., 2020 41 922-939
     doi.org/10.1002/jcc.26139
  4. Neese,F.
     The SHARK Integral Generation and Digestion System
     J. Comp. Chem., 2022  1-16
     doi.org/10.1002/jcc.26942

List of suggested additional citations. These are papers that are important in the 'surrounding' of 
of this run, or papers that preceded the highly important papers. If you like your results we are grateful for a citation.

  1. Neese,F.
     The ORCA program system
     WIRES Comput. Molec. Sci., 2012 2(1)73-78
     doi.org/10.1002/wcms.81
  2. Neese,F.
     Software update: the ORCA program system, version 4.0
     WIRES Comput. Molec. Sci., 2018 8(1)1-6
     doi.org/10.1002/wcms.1327
  3. Neese,F.; Wennmohs,F.; Becker,U.; Riplinger,C.
     The ORCA quantum chemistry program package
     J. Chem. Phys., 2020 152 Art. No. L224108
     doi.org/10.1063/5.0004608

List of optional additional citations

  1. Neese,F.
     Approximate second-order SCF convergence for spin unrestricted wavefunctions
     Chem. Phys. Lett., 2000 325(1-3)93-98
     doi.org/10.1016/s0009-2614(00)00662-x

Timings for individual modules:

Sum of individual times          ...       27.780 sec (=   0.463 min)
Startup calculation              ...        0.798 sec (=   0.013 min)   2.9 %
SCF iterations                   ...        2.462 sec (=   0.041 min)   8.9 %
Property integrals               ...        0.068 sec (=   0.001 min)   0.2 %
Property calculations            ...        0.064 sec (=   0.001 min)   0.2 %
CIS module                       ...       24.388 sec (=   0.406 min)  87.8 %
                             ****ORCA TERMINATED NORMALLY****
TOTAL RUN TIME: 0 days 0 hours 0 minutes 27 seconds 900 msec
