
                                 *****************
                                 * O   R   C   A *
                                 *****************

                                            #,                                       
                                            ###                                      
                                            ####                                     
                                            #####                                    
                                            ######                                   
                                           ########,                                 
                                     ,,################,,,,,                         
                               ,,#################################,,                 
                          ,,##########################################,,             
                       ,#########################################, ''#####,          
                    ,#############################################,,   '####,        
                  ,##################################################,,,,####,       
                ,###########''''           ''''###############################       
              ,#####''   ,,,,##########,,,,          '''####'''          '####       
            ,##' ,,,,###########################,,,                        '##       
           ' ,,###''''                  '''############,,,                           
         ,,##''                                '''############,,,,        ,,,,,,###''
      ,#''                                            '''#######################'''  
     '                                                          ''''####''''         
             ,#######,   #######,   ,#######,      ##                                
            ,#'     '#,  ##    ##  ,#'     '#,    #''#        ,####,   ,####,        
            ##       ##  ##   ,#'  ##            #'  '#       #'       #'  '#        
            ##       ##  #######   ##           ,######,      #####,   #    #        
            '#,     ,#'  ##    ##  '#,     ,#' ,#      #,     #,   #   #,  ,#        
             '#######'   ##     ##  '#######'  #'      '#     '####' # '####'        



                #########################################################
                #                        -***-                          #
                #          Department of theory and spectroscopy        #
                #                                                       #
                #                      Frank Neese                      #
                #                                                       #
                #     Directorship, Architecture, Infrastructure        #
                #                    SHARK, DRIVERS                     #
                #        Core code/Algorithms in most modules           #
                #                                                       #
                #        Max Planck Institute fuer Kohlenforschung      #
                #                Kaiser Wilhelm Platz 1                 #
                #                 D-45470 Muelheim/Ruhr                 #
                #                      Germany                          #
                #                                                       #
                #                  All rights reserved                  #
                #                        -***-                          #
                #########################################################


                         Program Version 6.0.0  -   RELEASE   -


 With contributions from (in alphabetic order):
   Daniel Aravena         : Magnetic Suceptibility
   Michael Atanasov       : Ab Initio Ligand Field Theory (pilot matlab implementation)
   Alexander A. Auer      : GIAO ZORA, VPT2 properties, NMR spectrum
   Ute Becker             : All parallelization in ORCA, NUMFREQ, NUMCALC
   Giovanni Bistoni       : ED, misc. LED, open-shell LED, HFLD
   Martin Brehm           : Molecular dynamics
   Dmytro Bykov           : pre 5.0 version of the SCF Hessian
   Marcos Casanova-Páez   : Triplet and SCS-CIS(D). UHF-(DLPNO)-IP/EA/STEOM-CCSD. UHF-CVS-IP/STEOM-CCSD
   Vijay G. Chilkuri      : MRCI spin determinant printing, contributions to CSF-ICE
   Pauline Colinet        : FMM embedding
   Dipayan Datta          : RHF DLPNO-CCSD density
   Achintya Kumar Dutta   : EOM-CC, STEOM-CC
   Nicolas Foglia         : Exact transition moments, OPA infrastructure, MCD improvements
   Dmitry Ganyushin       : Spin-Orbit,Spin-Spin,Magnetic field MRCI
   Miquel Garcia          : C-PCM and meta-GGA Hessian, CCSD/C-PCM, Gaussian charge scheme
   Tiago L. C. Gouveia    : GS-ROHF, GS-ROCIS
   Yang Guo               : DLPNO-NEVPT2, F12-NEVPT2, CIM, IAO-localization
   Andreas Hansen         : Spin unrestricted coupled pair/coupled cluster methods
   Ingolf Harden          : AUTO-CI MPn and infrastructure 
   Benjamin Helmich-Paris : MC-RPA, TRAH-(SCF,CASSCF), AVAS, COSX integrals, SCF dyn. polar.
   Lee Huntington         : MR-EOM, pCC
   Robert Izsak           : Overlap fitted RIJCOSX, COSX-SCS-MP3, EOM
   Riya Kayal             : Wick's Theorem for AUTO-CI, AUTO-CI UHF-CCSDT
   Emily Kempfer          : AUTO-CI, RHF CISDT and CCSDT
   Christian Kollmar      : KDIIS, OOCD, Brueckner-CCSD(T), CCSD density, CASPT2, CASPT2-K, improved NEVPT2
   Axel Koslowski         : Symmetry handling
   Simone Kossmann        : Meta GGA functionals, TD-DFT gradient, OOMP2, (MP2 Hessian; deprecated post 5.0)
   Lucas Lang             : DCDCAS
   Marvin Lechner         : AUTO-CI (C++ implementation), FIC-MRCC
   Spencer Leger          : CASSCF response
   Dagmar Lenk            : GEPOL surface, SMD, ORCA-2-JSON
   Dimitrios Liakos       : Extrapolation schemes; Compound Job, initial MDCI parallelization
   Dimitrios Manganas     : Further ROCIS development; embedding schemes. LFT, Crystal Embedding
   Dimitrios Pantazis     : SARC Basis sets
   Anastasios Papadopoulos: AUTO-CI, single reference methods and gradients
   Taras Petrenko         : pre 6.0 DFT Hessian and TD-DFT gradient, (ASA, deprecated), ECA, 1-Electron XAS/XES, NRVS
   Peter Pinski           : DLPNO-MP2, DLPNO-MP2 Gradient
   Christoph Reimann      : Effective Core Potentials
   Marius Retegan         : Local ZFS, SOC
   Christoph Riplinger    : Optimizer, TS searches, QM/MM, DLPNO-CCSD(T), (RO)-DLPNO pert. Triples
   Michael Roemelt        : Original ROCIS implementation
   Masaaki Saitow         : Open-shell DLPNO-CCSD energy and density
   Barbara Sandhoefer     : DKH picture change effects
   Kantharuban Sivalingam : CASSCF convergence/infrastructure, NEVPT2 and variants, FIC-MRCI
   Bernardo de Souza      : ESD, SOC TD-DFT
   Georgi Stoychev        : AutoAux, RI-MP2 NMR, DLPNO-MP2 response, X2C
   Van Anh Tran           : RI-MP2 g-tensors
   Willem Van den Heuvel  : Paramagnetic NMR
   Zikuan Wang            : NOTCH, Electric field optimization 
   Frank Wennmohs         : Technical directorship and infrastructure
   Hang Xu                : AUTO-CI-Response properties 


 We gratefully acknowledge several colleagues who have allowed us to
 interface, adapt or use parts of their codes:
   Stefan Grimme, W. Hujo, H. Kruse, P. Pracht,  : VdW corrections, initial TS optimization,
                  C. Bannwarth, S. Ehlert,         DFT functionals, gCP, sTDA/sTD-DF
                  L. Wittmann, M. Mueller
   Ed Valeev, F. Pavosevic, A. Kumar             : LibInt (2-el integral package), F12 methods
   Garnet Chan, S. Sharma, J. Yang, R. Olivares  : DMRG
   Ulf Ekstrom                                   : XCFun DFT Library
   Mihaly Kallay                                 : mrcc  (arbitrary order and MRCC methods)
   Frank Weinhold                                : gennbo (NPA and NBO analysis)
   Simon Mueller                                 : openCOSMO-RS
   Christopher J. Cramer and Donald G. Truhlar   : smd solvation model
   Lars Goerigk                                  : TD-DFT with DH, B97 family of functionals
   V. Asgeirsson, H. Jonsson                     : NEB implementation
   FAccTs GmbH                                   : IRC, NEB, NEB-TS, DLPNO-Multilevel, CI-OPT
                                                   MM, QMMM, 2- and 3-layer-ONIOM, Crystal-QMMM,
                                                   LR-CPCM, SF, NACMEs, symmetry and pop. for TD-DFT,
                                                   nearIR, NL-DFT gradient (VV10), updates on ESD,
                                                   ML-optimized integration grids, MBIS, APM,
                                                   GOAT, DOCKER, SOLVATOR, interface openCOSMO-RS
   S Lehtola, MJT Oliveira, MAL Marques          : LibXC Library
   Liviu Ungur et al                             : ANISO software


 Your calculation uses the libint2 library for the computation of 2-el integrals
 For citations please refer to: http://libint.valeyev.net

 Your ORCA version has been built with support for libXC version: 6.2.2
 For citations please refer to: https://libxc.gitlab.io

 This ORCA versions uses:
   CBLAS   interface :  Fast vector & matrix operations
   LAPACKE interface :  Fast linear algebra routines
   Shared memory     :  Shared parallel matrices


Warning: RI is on but no J-basis has been assigned. Assigning Def2/J (nothing to worry about!)
================================================================================

----- Orbital basis set information -----
Your calculation utilizes the basis: STO-3G
   H-Ne       : W. J. Hehre, R. F. Stewart and J. A. Pople, J. Chem. Phys. 2657 (1969).
   Na-Ar      : W. J. Hehre, R. Ditchfield, R. F. Stewart and J. A. Pople, J. Chem. Phys. 2769 (1970).
   K,Ca,Ga-Kr : W. J. Pietro, B. A. Levy, W. J. Hehre and R. F. Stewart, J. Am. Chem. Soc. 19, 2225 (1980).
   Sc-Zn,Y-Cd : W. J. Pietro and W. J. Hehre, J. Comp. Chem. 4, 241 (1983).

----- AuxJ basis set information -----
Your calculation utilizes the auxiliary basis: def2/J
   F. Weigend, Phys. Chem. Chem. Phys. 8, 1057 (2006).

================================================================================
                                        WARNINGS
                       Please study these warnings very carefully!
================================================================================


WARNING: Geometry Optimization
  ===> : Switching off AutoStart
         For restart on a previous wavefunction, please use MOREAD

================================================================================
                                       INPUT FILE
================================================================================
NAME = Ibuprofen\Ibuprofen_TPSS_STO-3G\Ibuprofen_TPSS_STO-3G.orcainp
|  1> # ORCA input file
|  2> # 
|  3> !TPSS STO-3G Opt CPCM(WATER)
|  4> * xyz 0 1
|  5>    C        2.95021        -0.38900         1.26274
|  6>    C        2.52045        -1.27848         0.09338
|  7>    C        0.99553        -1.40741         0.07675
|  8>    C        3.03305        -0.73504        -1.25720
|  9>    C        4.54216        -0.63179        -1.32375
| 10>    C        5.34421        -1.77303        -1.21037
| 11>    C        6.73846        -1.66838        -1.22843
| 12>    C        7.36134        -0.42186        -1.38715
| 13>    C        6.55228         0.71875        -1.50569
| 14>    C        5.15995         0.61450        -1.47446
| 15>    C        8.87998        -0.34092        -1.48484
| 16>    C        9.28189         0.24772        -2.84195
| 17>    C        9.61173         0.40524        -0.37163
| 18>    O        8.87745         0.76600         0.70549
| 19>    O       10.81195         0.64384        -0.41318
| 20>    H        2.59304        -0.80141         2.21203
| 21>    H        2.55000         0.62512         1.15790
| 22>    H        4.04024        -0.31777         1.33342
| 23>    H        2.93334        -2.27988         0.25826
| 24>    H        0.51345        -0.43617        -0.07745
| 25>    H        0.63424        -1.81602         1.02656
| 26>    H        0.66784        -2.08146        -0.72144
| 27>    H        2.58341         0.24756        -1.45114
| 28>    H        2.69896        -1.38702        -2.07513
| 29>    H        4.88886        -2.75489        -1.10326
| 30>    H        7.32748        -2.57887        -1.13792
| 31>    H        6.99599         1.70432        -1.63567
| 32>    H        4.56054         1.51848        -1.56984
| 33>    H        9.27510        -1.36482        -1.43749
| 34>    H        8.93076         1.27903        -2.95691
| 35>    H        8.86386        -0.34431        -3.66356
| 36>    H       10.37078         0.26519        -2.96132
| 37>    H        7.93807         0.51129         0.66734
| 38> *
| 39> 
| 40>                          ****END OF INPUT****
================================================================================

                       *****************************
                       * Geometry Optimization Run *
                       *****************************

Geometry optimization settings:
Update method            Update   .... BFGS
Choice of coordinates    CoordSys .... (2022) Redundant Internals
Initial Hessian          InHess   .... Almloef's Model
Max. no of cycles        MaxIter  .... 99

Convergence Tolerances:
Energy Change            TolE     ....  5.0000e-06 Eh
Max. Gradient            TolMAXG  ....  3.0000e-04 Eh/bohr
RMS Gradient             TolRMSG  ....  1.0000e-04 Eh/bohr
Max. Displacement        TolMAXD  ....  4.0000e-03 bohr
RMS Displacement         TolRMSD  ....  2.0000e-03 bohr
Strict Convergence                .... False

------------------------------------------------------------------------------
                        ORCA OPTIMIZATION COORDINATE SETUP
------------------------------------------------------------------------------

The optimization will be done in redundant internal coordinates (2022)
Making redundant internal coordinates   ...  (2022 redundants) done
Evaluating the initial hessian          ...  (Almloef) done
Evaluating the coordinates              ...  done
Calculating the B-matrix                .... done
Calculating the G-matrix                .... done
Diagonalizing the G-matrix              .... done
Small eigenvalue found = 1.019e-02
Small eigenvalue found = 1.799e-02
Small eigenvalue found = 2.497e-02
Small eigenvalue found = 2.537e-02
The first mode is                       ....   64
The number of degrees of freedom        ....   93

    -----------------------------------------------------------------
                    Redundant Internal Coordinates


    -----------------------------------------------------------------
         Definition                    Initial Value    Approx d2E/dq
    -----------------------------------------------------------------
      1. B(C   1,C   0)                  1.5308         0.372513   
      2. B(C   2,C   1)                  1.5305         0.372956   
      3. B(C   3,C   1)                  1.5434         0.355601   
      4. B(C   4,C   3)                  1.5141         0.396044   
      5. B(C   5,C   4)                  1.3995         0.603393   
      6. B(C   6,C   5)                  1.3983         0.606059   
      7. B(C   7,C   6)                  1.4025         0.596772   
      8. B(C   8,C   7)                  1.4034         0.594715   
      9. B(C   9,C   8)                  1.3966         0.609882   
     10. B(C   9,C   4)                  1.3991         0.604147   
     11. B(C  10,C   7)                  1.5239         0.381999   
     12. B(C  11,C  10)                  1.5329         0.369619   
     13. B(C  12,C  10)                  1.5269         0.377842   
     14. B(O  13,C  12)                  1.3526         0.642036   
     15. B(O  14,C  12)                  1.2244         1.028160   
     16. B(H  15,C   0)                  1.0949         0.353677   
     17. B(H  16,C   0)                  1.0953         0.353206   
     18. B(H  17,C   0)                  1.0946         0.354015   
     19. B(H  18,C   1)                  1.0957         0.352693   
     20. B(H  19,C   2)                  1.0952         0.353273   
     21. B(H  20,C   2)                  1.0953         0.353186   
     22. B(H  21,C   2)                  1.0949         0.353661   
     23. B(H  22,C   3)                  1.0979         0.349854   
     24. B(H  23,C   3)                  1.0980         0.349613   
     25. B(H  24,C   5)                  1.0876         0.363294   
     26. B(H  25,C   6)                  1.0882         0.362520   
     27. B(H  26,C   8)                  1.0886         0.361913   
     28. B(H  27,C   9)                  1.0888         0.361640   
     29. B(H  28,C  10)                  1.0985         0.349011   
     30. B(H  29,C  11)                  1.0955         0.352904   
     31. B(H  30,C  11)                  1.0956         0.352796   
     32. B(H  31,C  11)                  1.0956         0.352829   
     33. B(H  32,H  17)                  4.0403         0.000001   
     34. B(H  32,O  13)                  0.9740         0.493805   
     35. A(C   1,C   0,H  15)          110.6012         0.323211   
     36. A(H  15,C   0,H  17)          107.0596         0.289245   
     37. A(C   1,C   0,H  17)          111.5122         0.323262   
     38. A(H  16,C   0,H  17)          108.0467         0.289185   
     39. A(C   1,C   0,H  16)          111.2422         0.323141   
     40. A(H  15,C   0,H  16)          108.2131         0.289141   
     41. A(C   0,C   1,C   3)          111.7539         0.360132   
     42. A(C   2,C   1,H  18)          107.4648         0.323127   
     43. A(C   2,C   1,C   3)          110.5529         0.360205   
     44. A(C   3,C   1,H  18)          109.1678         0.320615   
     45. A(C   0,C   1,H  18)          108.0788         0.323064   
     46. A(C   0,C   1,C   2)          109.6932         0.363072   
     47. A(C   1,C   2,H  19)          111.4324         0.323214   
     48. A(H  20,C   2,H  21)          107.6854         0.289137   
     49. A(C   1,C   2,H  20)          110.5286         0.323201   
     50. A(H  19,C   2,H  21)          108.1533         0.289148   
     51. A(C   1,C   2,H  21)          110.9766         0.323272   
     52. A(H  19,C   2,H  20)          107.9229         0.289087   
     53. A(C   1,C   3,H  23)          109.9811         0.320156   
     54. A(C   4,C   3,H  22)          109.8411         0.325897   
     55. A(H  22,C   3,H  23)          105.9756         0.288188   
     56. A(C   1,C   3,C   4)          113.1722         0.363917   
     57. A(C   1,C   3,H  22)          109.4931         0.320192   
     58. A(C   4,C   3,H  23)          108.1198         0.325860   
     59. A(C   5,C   4,C   9)          118.8196         0.429947   
     60. A(C   3,C   4,C   5)          120.8000         0.398868   
     61. A(C   3,C   4,C   9)          120.3691         0.398956   
     62. A(C   4,C   5,C   6)          120.6219         0.430191   
     63. A(C   6,C   5,H  24)          119.0979         0.352079   
     64. A(C   4,C   5,H  24)          120.2799         0.351817   
     65. A(C   5,C   6,C   7)          120.7185         0.429340   
     66. A(C   7,C   6,H  25)          120.8421         0.351035   
     67. A(C   5,C   6,H  25)          118.4266         0.351952   
     68. A(C   8,C   7,C  10)          121.7292         0.395340   
     69. A(C   6,C   7,C  10)          119.8045         0.395580   
     70. A(C   6,C   7,C   8)          118.4162         0.427888   
     71. A(C   9,C   8,H  26)          118.4633         0.352227   
     72. A(C   7,C   8,C   9)          120.8090         0.429559   
     73. A(C   7,C   8,H  26)          120.7241         0.350731   
     74. A(C   4,C   9,C   8)          120.6042         0.430774   
     75. A(C   4,C   9,H  27)          120.3900         0.351620   
     76. A(C   8,C   9,H  27)          119.0058         0.352182   
     77. A(C   7,C  10,C  11)          109.7811         0.364076   
     78. A(C  12,C  10,H  28)          104.5771         0.323260   
     79. A(C  11,C  10,H  28)          107.5644         0.322096   
     80. A(C   7,C  10,H  28)          107.8285         0.323841   
     81. A(C  11,C  10,C  12)          109.3994         0.363396   
     82. A(C   7,C  10,C  12)          117.1803         0.365449   
     83. A(H  30,C  11,H  31)          107.8271         0.288980   
     84. A(H  29,C  11,H  31)          106.9853         0.288994   
     85. A(C  10,C  11,H  31)          111.2958         0.322671   
     86. A(H  29,C  11,H  30)          107.9222         0.288990   
     87. A(C  10,C  11,H  30)          110.8782         0.322666   
     88. A(C  10,C  11,H  29)          111.7386         0.322682   
     89. A(O  13,C  12,O  14)          120.4769         0.472599   
     90. A(C  10,C  12,O  14)          122.7010         0.432046   
     91. A(C  10,C  12,O  13)          116.7921         0.397365   
     92. A(C  12,O  13,H  32)          114.9996         0.369057   
     93. D(C   3,C   1,C   0,H  15)   -178.9388         0.011084   
     94. D(C   2,C   1,C   0,H  15)     58.0846         0.011084   
     95. D(C   3,C   1,C   0,H  17)    -59.9238         0.011084   
     96. D(C   3,C   1,C   0,H  16)     60.7720         0.011084   
     97. D(C   2,C   1,C   0,H  16)    -62.2046         0.011084   
     98. D(C   2,C   1,C   0,H  17)    177.0996         0.011084   
     99. D(H  19,C   2,C   1,C   3)    -61.3764         0.011109   
    100. D(H  19,C   2,C   1,C   0)     62.3068         0.011109   
    101. D(H  20,C   2,C   1,H  18)     59.5736         0.011109   
    102. D(H  20,C   2,C   1,C   3)    178.6232         0.011109   
    103. D(H  20,C   2,C   1,C   0)    -57.6936         0.011109   
    104. D(H  19,C   2,C   1,H  18)    179.5740         0.011109   
    105. D(C   4,C   3,C   1,H  18)    -59.8720         0.010163   
    106. D(C   4,C   3,C   1,C   0)     59.6290         0.010163   
    107. D(C   4,C   3,C   1,C   2)   -177.8845         0.010163   
    108. D(H  22,C   3,C   1,H  18)    177.2289         0.010163   
    109. D(H  22,C   3,C   1,C   2)     59.2164         0.010163   
    110. D(H  22,C   3,C   1,C   0)    -63.2701         0.010163   
    111. D(C   9,C   4,C   3,C   1)   -116.6358         0.011651   
    112. D(C   5,C   4,C   3,H  23)    -59.9559         0.011651   
    113. D(C   5,C   4,C   3,H  22)   -175.1661         0.011651   
    114. D(C   9,C   4,C   3,H  22)      6.0704         0.011651   
    115. D(C   5,C   4,C   3,C   1)     62.1277         0.011651   
    116. D(H  24,C   5,C   4,C   9)   -179.3297         0.025114   
    117. D(C   6,C   5,C   4,C   9)      0.8878         0.025114   
    118. D(H  24,C   5,C   4,C   3)      1.8880         0.025114   
    119. D(C   6,C   5,C   4,C   3)   -177.8945         0.025114   
    120. D(H  25,C   6,C   5,H  24)      0.2275         0.025349   
    121. D(H  25,C   6,C   5,C   4)   -179.9874         0.025349   
    122. D(C   7,C   6,C   5,C   4)     -1.2790         0.025349   
    123. D(C   7,C   6,C   5,H  24)    178.9360         0.025349   
    124. D(C  10,C   7,C   6,H  25)      2.2118         0.024537   
    125. D(C  10,C   7,C   6,C   5)   -176.4653         0.024537   
    126. D(C   8,C   7,C   6,H  25)    179.6825         0.024537   
    127. D(C   8,C   7,C   6,C   5)      1.0054         0.024537   
    128. D(H  26,C   8,C   7,C  10)     -2.2503         0.024359   
    129. D(H  26,C   8,C   7,C   6)   -179.6698         0.024359   
    130. D(C   9,C   8,C   7,C  10)    177.0407         0.024359   
    131. D(C   9,C   8,C   7,C   6)     -0.3789         0.024359   
    132. D(H  27,C   9,C   8,C   7)   -179.9491         0.025688   
    133. D(C   4,C   9,C   8,H  26)    179.3207         0.025688   
    134. D(C   4,C   9,C   8,C   7)      0.0140         0.025688   
    135. D(H  27,C   9,C   4,C   5)    179.7015         0.025181   
    136. D(H  27,C   9,C   4,C   3)     -1.5108         0.025181   
    137. D(C   8,C   9,C   4,C   5)     -0.2612         0.025181   
    138. D(H  27,C   9,C   8,H  26)     -0.6425         0.025688   
    139. D(C   8,C   9,C   4,C   3)    178.5266         0.025181   
    140. D(H  28,C  10,C   7,C   6)      1.6017         0.010882   
    141. D(C  12,C  10,C   7,C   8)     66.6788         0.010882   
    142. D(C  12,C  10,C   7,C   6)   -115.9367         0.010882   
    143. D(C  11,C  10,C   7,C   8)    -58.8756         0.010882   
    144. D(C  11,C  10,C   7,C   6)    118.5089         0.010882   
    145. D(H  30,C  11,C  10,H  28)     60.2768         0.010923   
    146. D(H  30,C  11,C  10,C  12)    173.3150         0.010923   
    147. D(H  30,C  11,C  10,C   7)    -56.7959         0.010923   
    148. D(H  29,C  11,C  10,H  28)   -179.2822         0.010923   
    149. D(H  29,C  11,C  10,C  12)    -66.2440         0.010923   
    150. D(H  29,C  11,C  10,C   7)     63.6451         0.010923   
    151. D(O  14,C  12,C  10,C  11)    -46.9991         0.010661   
    152. D(O  14,C  12,C  10,C   7)   -172.7429         0.010661   
    153. D(O  13,C  12,C  10,H  28)   -110.0435         0.010661   
    154. D(O  13,C  12,C  10,C  11)    134.9856         0.010661   
    155. D(O  13,C  12,C  10,C   7)      9.2418         0.010661   
    156. D(H  32,O  13,C  12,O  14)   -178.0530         0.030404   
    157. D(H  32,O  13,C  12,C  10)      0.0092         0.030404   
    -----------------------------------------------------------------

Number of atoms                         .... 33
Number of degrees of freedom            .... 157


         *************************************************************
         *                GEOMETRY OPTIMIZATION CYCLE   1            *
         *************************************************************
---------------------------------
CARTESIAN COORDINATES (ANGSTROEM)
---------------------------------
  C      2.950210   -0.389000    1.262740
  C      2.520450   -1.278480    0.093380
  C      0.995530   -1.407410    0.076750
  C      3.033050   -0.735040   -1.257200
  C      4.542160   -0.631790   -1.323750
  C      5.344210   -1.773030   -1.210370
  C      6.738460   -1.668380   -1.228430
  C      7.361340   -0.421860   -1.387150
  C      6.552280    0.718750   -1.505690
  C      5.159950    0.614500   -1.474460
  C      8.879980   -0.340920   -1.484840
  C      9.281890    0.247720   -2.841950
  C      9.611730    0.405240   -0.371630
  O      8.877450    0.766000    0.705490
  O     10.811950    0.643840   -0.413180
  H      2.593040   -0.801410    2.212030
  H      2.550000    0.625120    1.157900
  H      4.040240   -0.317770    1.333420
  H      2.933340   -2.279880    0.258260
  H      0.513450   -0.436170   -0.077450
  H      0.634240   -1.816020    1.026560
  H      0.667840   -2.081460   -0.721440
  H      2.583410    0.247560   -1.451140
  H      2.698960   -1.387020   -2.075130
  H      4.888860   -2.754890   -1.103260
  H      7.327480   -2.578870   -1.137920
  H      6.995990    1.704320   -1.635670
  H      4.560540    1.518480   -1.569840
  H      9.275100   -1.364820   -1.437490
  H      8.930760    1.279030   -2.956910
  H      8.863860   -0.344310   -3.663560
  H     10.370780    0.265190   -2.961320
  H      7.938070    0.511290    0.667340

----------------------------
CARTESIAN COORDINATES (A.U.)
----------------------------
  NO LB      ZA    FRAG     MASS         X           Y           Z
   0 C     6.0000    0    12.011    5.575089   -0.735103    2.386233
   1 C     6.0000    0    12.011    4.762960   -2.415977    0.176463
   2 C     6.0000    0    12.011    1.881279   -2.659619    0.145036
   3 C     6.0000    0    12.011    5.731634   -1.389024   -2.375764
   4 C     6.0000    0    12.011    8.583438   -1.193910   -2.501525
   5 C     6.0000    0    12.011   10.099093   -3.350541   -2.287268
   6 C     6.0000    0    12.011   12.733844   -3.152781   -2.321396
   7 C     6.0000    0    12.011   13.910917   -0.797200   -2.621334
   8 C     6.0000    0    12.011   12.382015    1.358241   -2.845342
   9 C     6.0000    0    12.011    9.750892    1.161237   -2.786326
  10 C     6.0000    0    12.011   16.780730   -0.644245   -2.805941
  11 C     6.0000    0    12.011   17.540230    0.468123   -5.370507
  12 C     6.0000    0    12.011   18.163537    0.765793   -0.702279
  13 O     8.0000    0    15.999   16.775949    1.447530    1.333183
  14 O     8.0000    0    15.999   20.431624    1.216681   -0.780797
  15 H     1.0000    0     1.008    4.900135   -1.514445    4.180131
  16 H     1.0000    0     1.008    4.818802    1.181306    2.188114
  17 H     1.0000    0     1.008    7.634947   -0.600498    2.519799
  18 H     1.0000    0     1.008    5.543209   -4.308349    0.488041
  19 H     1.0000    0     1.008    0.970280   -0.824242   -0.146359
  20 H     1.0000    0     1.008    1.198540   -3.431780    1.939917
  21 H     1.0000    0     1.008    1.262035   -3.933389   -1.363324
  22 H     1.0000    0     1.008    4.881937    0.467821   -2.742257
  23 H     1.0000    0     1.008    5.100295   -2.621088   -3.921427
  24 H     1.0000    0     1.008    9.238607   -5.205988   -2.084859
  25 H     1.0000    0     1.008   13.846930   -4.873358   -2.150357
  26 H     1.0000    0     1.008   13.220505    3.220698   -3.090968
  27 H     1.0000    0     1.008    8.618172    2.869511   -2.966568
  28 H     1.0000    0     1.008   17.527399   -2.579136   -2.716462
  29 H     1.0000    0     1.008   16.876691    2.417016   -5.587750
  30 H     1.0000    0     1.008   16.750268   -0.650652   -6.923125
  31 H     1.0000    0     1.008   19.597934    0.501136   -5.596084
  32 H     1.0000    0     1.008   15.000778    0.966198    1.261090

--------------------------------
INTERNAL COORDINATES (ANGSTROEM)
--------------------------------
 C      0   0   0     0.000000000000     0.00000000     0.00000000
 C      1   0   0     1.530774685445     0.00000000     0.00000000
 C      2   1   0     1.530451079976   109.69319757     0.00000000
 C      2   1   3     1.543422213783   111.75390370   122.97659260
 C      4   2   1     1.514101204378   113.17224034    59.62897433
 C      5   4   2     1.399488465297   120.80003733    62.12774448
 C      6   5   4     1.398288542684   120.62185491   182.10546629
 C      7   6   5     1.402491940512   120.71853495   358.72101334
 C      8   7   6     1.403431860583   118.41616767     1.00540452
 C      9   8   7     1.396576601658   120.80897981   359.62112357
 C      8   7   6     1.523929811146   119.80454381   183.53472139
 C     11   8   7     1.532897990670   109.78111772   118.50890178
 C     11   8   7     1.526908416442   117.18028431   244.06325010
 O     13  11   8     1.352590991542   116.79212193     9.24179940
 O     13  11   8     1.224411863263   122.70096910   187.25713881
 H      1   2   3     1.094899046077   110.60116628    58.08460252
 H      1   2   3     1.095261997926   111.24215826   297.79538611
 H      1   2   3     1.094639107743   111.51224075   177.09963316
 H      2   1   3     1.095657577211   108.07878105   243.11782334
 H      3   2   1     1.095210438226   111.43237591    62.30681607
 H      3   2   1     1.095276966023   110.52860221   302.30640348
 H      3   2   1     1.094911601318   110.97655958   182.90158328
 H      4   2   1     1.097857738143   109.49312922   296.72986935
 H      4   2   1     1.098045323928   109.98113291   180.66617580
 H      6   5   4     1.087596080445   120.27986322     1.88797466
 H      7   6   5     1.088176759814   118.42658827   180.01256479
 H      9   8   7     1.088632899282   120.72408072   180.33017648
 H     10   9   8     1.088838616554   119.00576528   180.05085388
 H     11   8   7     1.098514017617   107.82851498     1.60169337
 H     12  11   8     1.095494589033   111.73864193    63.64514186
 H     12  11   8     1.095578200723   110.87819736   303.20408023
 H     12  11   8     1.095552750852   111.29575597   183.18075441
 H     14  13  11     0.974046914168   114.99964197     0.00000000

---------------------------
INTERNAL COORDINATES (A.U.)
---------------------------
 C      0   0   0     0.000000000000     0.00000000     0.00000000
 C      1   0   0     2.892744928231     0.00000000     0.00000000
 C      2   1   0     2.892133402519   109.69319757     0.00000000
 C      2   1   3     2.916645293061   111.75390370   122.97659260
 C      4   2   1     2.861236615315   113.17224034    59.62897433
 C      5   4   2     2.644649926994   120.80003733    62.12774448
 C      6   5   4     2.642382401872   120.62185491   182.10546629
 C      7   6   5     2.650325672599   120.71853495   358.72101334
 C      8   7   6     2.652101864122   118.41616767     1.00540452
 C      9   8   7     2.639147302177   120.80897981   359.62112357
 C      8   7   6     2.879809990385   119.80454381   183.53472139
 C     11   8   7     2.896757393604   109.78111772   118.50890178
 C     11   8   7     2.885438738654   117.18028431   244.06325010
 O     13  11   8     2.556026545223   116.79212193     9.24179940
 O     13  11   8     2.313803096692   122.70096910   187.25713881
 H      1   2   3     2.069059341377   110.60116628    58.08460252
 H      1   2   3     2.069745220971   111.24215826   297.79538611
 H      1   2   3     2.068568129114   111.51224075   177.09963316
 H      2   1   3     2.070492757485   108.07878105   243.11782334
 H      3   2   1     2.069647787260   111.43237591    62.30681607
 H      3   2   1     2.069773506575   110.52860221   302.30640348
 H      3   2   1     2.069083067344   110.97655958   182.90158328
 H      4   2   1     2.074650459096   109.49312922   296.72986935
 H      4   2   1     2.075004944857   109.98113291   180.66617580
 H      6   5   4     2.055258736368   120.27986322     1.88797466
 H      7   6   5     2.056356061347   118.42658827   180.01256479
 H      9   8   7     2.057218040020   120.72408072   180.33017648
 H     10   9   8     2.057606789325   119.00576528   180.05085388
 H     11   8   7     2.075890647569   107.82851498     1.60169337
 H     12  11   8     2.070184754464   111.73864193    63.64514186
 H     12  11   8     2.070342757661   110.87819736   303.20408023
 H     12  11   8     2.070294664375   111.29575597   183.18075441
 H     14  13  11     1.840681909368   114.99964197     0.00000000

---------------------
BASIS SET INFORMATION
---------------------
There are 3 groups of distinct atoms

 Group   1 Type C   : 6s3p contracted to 2s1p pattern {33/3}
 Group   2 Type O   : 6s3p contracted to 2s1p pattern {33/3}
 Group   3 Type H   : 3s contracted to 1s pattern {3}

Atom   0C    basis set group =>   1
Atom   1C    basis set group =>   1
Atom   2C    basis set group =>   1
Atom   3C    basis set group =>   1
Atom   4C    basis set group =>   1
Atom   5C    basis set group =>   1
Atom   6C    basis set group =>   1
Atom   7C    basis set group =>   1
Atom   8C    basis set group =>   1
Atom   9C    basis set group =>   1
Atom  10C    basis set group =>   1
Atom  11C    basis set group =>   1
Atom  12C    basis set group =>   1
Atom  13O    basis set group =>   2
Atom  14O    basis set group =>   2
Atom  15H    basis set group =>   3
Atom  16H    basis set group =>   3
Atom  17H    basis set group =>   3
Atom  18H    basis set group =>   3
Atom  19H    basis set group =>   3
Atom  20H    basis set group =>   3
Atom  21H    basis set group =>   3
Atom  22H    basis set group =>   3
Atom  23H    basis set group =>   3
Atom  24H    basis set group =>   3
Atom  25H    basis set group =>   3
Atom  26H    basis set group =>   3
Atom  27H    basis set group =>   3
Atom  28H    basis set group =>   3
Atom  29H    basis set group =>   3
Atom  30H    basis set group =>   3
Atom  31H    basis set group =>   3
Atom  32H    basis set group =>   3
---------------------------------
AUXILIARY/J BASIS SET INFORMATION
---------------------------------
There are 3 groups of distinct atoms

 Group   1 Type C   : 12s5p4d2f1g contracted to 6s4p3d1f1g pattern {711111/2111/211/2/1}
 Group   2 Type O   : 12s5p4d2f1g contracted to 6s4p3d1f1g pattern {711111/2111/211/2/1}
 Group   3 Type H   : 5s2p1d contracted to 3s1p1d pattern {311/2/1}

Atom   0C    basis set group =>   1
Atom   1C    basis set group =>   1
Atom   2C    basis set group =>   1
Atom   3C    basis set group =>   1
Atom   4C    basis set group =>   1
Atom   5C    basis set group =>   1
Atom   6C    basis set group =>   1
Atom   7C    basis set group =>   1
Atom   8C    basis set group =>   1
Atom   9C    basis set group =>   1
Atom  10C    basis set group =>   1
Atom  11C    basis set group =>   1
Atom  12C    basis set group =>   1
Atom  13O    basis set group =>   2
Atom  14O    basis set group =>   2
Atom  15H    basis set group =>   3
Atom  16H    basis set group =>   3
Atom  17H    basis set group =>   3
Atom  18H    basis set group =>   3
Atom  19H    basis set group =>   3
Atom  20H    basis set group =>   3
Atom  21H    basis set group =>   3
Atom  22H    basis set group =>   3
Atom  23H    basis set group =>   3
Atom  24H    basis set group =>   3
Atom  25H    basis set group =>   3
Atom  26H    basis set group =>   3
Atom  27H    basis set group =>   3
Atom  28H    basis set group =>   3
Atom  29H    basis set group =>   3
Atom  30H    basis set group =>   3
Atom  31H    basis set group =>   3
Atom  32H    basis set group =>   3
------------------------------------------------------------------------------
                             ORCA STARTUP CALCULATIONS
                           -- RI-GTO INTEGRALS CHOSEN --
------------------------------------------------------------------------------
------------------------------------------------------------------------------
                   ___                                                        
                  /   \      - P O W E R E D   B Y -                         
                 /     \                                                     
                 |  |  |   _    _      __       _____    __    __             
                 |  |  |  | |  | |    /  \     |  _  \  |  |  /  |          
                  \  \/   | |  | |   /    \    | | | |  |  | /  /          
                 / \  \   | |__| |  /  /\  \   | |_| |  |  |/  /          
                |  |  |   |  __  | /  /__\  \  |    /   |      \           
                |  |  |   | |  | | |   __   |  |    \   |  |\   \          
                \     /   | |  | | |  |  |  |  | |\  \  |  | \   \       
                 \___/    |_|  |_| |__|  |__|  |_| \__\ |__|  \__/        
                                                                              
                      - O R C A' S   B I G   F R I E N D -                    
                                      &                                       
                       - I N T E G R A L  F E E D E R -                       
                                                                              
 v1 FN, 2020, v2 2021, v3 2022-2024                                           
------------------------------------------------------------------------------


----------------------
SHARK INTEGRAL PACKAGE
----------------------

Number of atoms                             ...     33
Number of basis functions                   ...     93
Number of shells                            ...     63
Maximum angular momentum                    ...      1
Integral batch strategy                     ... SHARK/LIBINT Hybrid
RI-J (if used) integral strategy            ... SPLIT-RIJ (Revised 2003 algorithm where possible)
Printlevel                                  ...      1
Contraction scheme used                     ... SEGMENTED contraction
Prescreening option                         ... SCHWARTZ
   Thresh                                   ... 2.500e-11
   Tcut                                     ... 2.500e-12
   Tpresel                                  ... 2.500e-12 
Coulomb Range Separation                    ... NOT USED
Exchange Range Separation                   ... NOT USED
Multipole approximations                    ... NOT USED
Finite Nucleus Model                        ... NOT USED
CABS basis                                  ... NOT available
Auxiliary Coulomb fitting basis             ... AVAILABLE
   # of basis functions in Aux-J            ...    933
   # of shells in Aux-J                     ...    315
   Maximum angular momentum in Aux-J        ...      4
Auxiliary J/K fitting basis                 ... NOT available
Auxiliary Correlation fitting basis         ... NOT available
Auxiliary 'external' fitting basis          ... NOT available

Checking pre-screening integrals            ... done (  0.0 sec) Dimension = 63
Check shell pair data                       ... done (  0.0 sec)
Shell pair information
Shell pair cut-off parameter TPreSel        ...   2.5e-12
Total number of shell pairs                 ...      2016
Shell pairs after pre-screening             ...      1680
Total number of primitive shell pairs       ...     18144
Primitive shell pairs kept                  ...      9967
          la=0 lb=0:    930 shell pairs
          la=1 lb=0:    637 shell pairs
          la=1 lb=1:    113 shell pairs

Calculating one electron integrals          ... done (  0.0 sec)
Calculating RI/J V-Matrix + Cholesky decomp.... done (  0.0 sec)
Calculating Nuclear repulsion               ... done (  0.0 sec) ENN=    969.196472731820 Eh

Diagonalization of the overlap matrix:
Smallest eigenvalue                        ... 1.738e-01
Time for diagonalization                   ...    0.000 sec
Threshold for overlap eigenvalues          ... 1.000e-07
Number of eigenvalues below threshold      ... 0
Time for construction of square roots      ...    0.002 sec
Total time needed                          ...    0.002 sec

-------------------
DFT GRID GENERATION
-------------------

General Integration Accuracy     IntAcc      ... 4.388
Radial Grid Type                 RadialGrid  ... OptM3 with GC (2021)
Angular Grid (max. ang.)         AngularGrid ... 4 (Lebedev-302)
Angular grid pruning method      GridPruning ... 4 (adaptive)
Weight generation scheme         WeightScheme... mBecke (2022)
Basis function cutoff            BFCut       ... 1.0000e-11
Integration weight cutoff        WCut        ... 1.0000e-14
Partially contracted basis set               ... off
Rotationally invariant grid construction     ... off
Angular grids for H and He will be reduced by one unit

Total number of grid points                  ...   146920
Total number of batches                      ...     2310
Average number of points per batch           ...       63
Average number of grid points per atom       ...     4452
Initializing property integral containers    ... done (  0.0 sec)

SHARK setup successfully completed in   0.8 seconds

Maximum memory used throughout the entire STARTUP-calculation: 51.7 MB
-------------------------------------------------------------------------------
                                 ORCA GUESS
                   Start orbitals & Density for SCF / CASSCF
-------------------------------------------------------------------------------

------------
SCF SETTINGS
------------
Hamiltonian:
 Density Functional     Method          .... DFT(GTOs)
 Exchange Functional    Exchange        .... TPSS
 Correlation Functional Correlation     .... TPSS
 LDA part of GGA corr.  LDAOpt          .... PW91-LDA
 Gradients option       PostSCFGGA      .... off
   NL short-range parameter             ....  5.000000
 RI-approximation to the Coulomb term is turned on
   Number of AuxJ basis functions       .... 933


General Settings:
 Integral files         IntName         .... Ibuprofen\Ibuprofen_TPSS_STO-3G\Ibuprofen_TPSS_STO-3G.orcainp
 Hartree-Fock type      HFTyp           .... RHF
 Total Charge           Charge          ....    0
 Multiplicity           Mult            ....    1
 Number of Electrons    NEL             ....  112
 Basis Dimension        Dim             ....   93
 Nuclear Repulsion      ENuc            ....    969.1964727318 Eh

Convergence Acceleration:
 AO-DIIS                CNVDIIS         .... on
   Start iteration      DIISMaxIt       ....    12
   Startup error        DIISStart       ....  0.200000
   # of expansion vecs  DIISMaxEq       ....     5
   Bias factor          DIISBfac        ....   1.050
   Max. coefficient     DIISMaxC        ....  10.000
 MO-DIIS                CNVKDIIS        .... off
 Trust-Rad. Augm. Hess. CNVTRAH         .... auto
   Auto Start mean grad. ratio tolernc. ....  1.125000
   Auto Start start iteration           ....    50
   Auto Start num. interpolation iter.  ....    10
   Max. Number of Micro iterations      ....    24
   Max. Number of Macro iterations      .... Maxiter - #DIIS iter
   Number of Davidson start vectors     ....     2
   Converg. threshold    (grad. norm)   ....   1.000e-05
   Grad. Scal. Fac. for Micro threshold ....   0.100
   Minimum threshold for Micro iter.    ....   1.000e-02
   NR start threshold (gradient norm)   ....   1.000e-04
   Initial trust radius                 ....   0.400
   Minimum AH scaling param. (alpha)    ....   1.000
   Maximum AH scaling param. (alpha)    .... 1000.000
   Quad. conv. algorithm                .... NR
   White noise on init. David. guess    .... on
   Maximum white noise                  ....   0.010
   Pseudo random numbers                .... off
   Inactive MOs                         .... canonical
   Orbital update algorithm             .... Taylor
   Preconditioner                       .... Diag
   Full preconditioner red. dimension   ....   250
 SOSCF                  CNVSOSCF        .... on
   Start iteration      SOSCFMaxIt      ....   150
   Startup grad/error   SOSCFStart      ....  0.003300
   Hessian update       SOSCFHessUp     .... L-BFGS
 Level Shifting         CNVShift        .... on
   Level shift para.    LevelShift      ....    0.2500
   Turn off err/grad.   ShiftErr        ....    0.0010
 Zerner damping         CNVZerner       .... off
 Static damping         CNVDamp         .... on
   Fraction old density DampFac         ....    0.7000
   Max. Damping (<1)    DampMax         ....    0.9800
   Min. Damping (>=0)   DampMin         ....    0.0000
   Turn off err/grad.   DampErr         ....    0.1000

SCF Procedure:
 Maximum # iterations   MaxIter         ....   125
 SCF integral mode      SCFMode         .... Direct
   Integral package                     .... SHARK and LIBINT hybrid scheme
 Reset frequency        DirectResetFreq ....    20
 Integral Threshold     Thresh          ....  2.500e-11 Eh
 Primitive CutOff       TCut            ....  2.500e-12 Eh

Convergence Tolerance:
 Convergence Check Mode ConvCheckMode   .... Total+1el-Energy
 Convergence forced     ConvForced      .... 0
 Energy Change          TolE            ....  1.000e-08 Eh
 1-El. energy change                    ....  1.000e-05 Eh
 Orbital Gradient       TolG            ....  1.000e-05
 Orbital Rotation angle TolX            ....  1.000e-05
 DIIS Error             TolErr          ....  5.000e-07

------------------------------
INITIAL GUESS: MODEL POTENTIAL
------------------------------
Loading Hartree-Fock densities                     ... done
Calculating cut-offs                               ... done
Initializing the effective Hamiltonian             ... done
Setting up the integral package (SHARK)            ... done
Starting the Coulomb interaction                   ... done (   0.1 sec)
Making the grid                                    ... done (   0.2 sec)
Mapping shells                                     ... done
Starting the XC term evaluation                    ... done (   0.1 sec)
  promolecular density results
     # of electrons  =    111.995808042
     EX              =    -88.096107445
     EC              =     -3.713884996
     EX+EC           =    -91.809992441
Transforming the Hamiltonian                       ... done (   0.0 sec)
Diagonalizing the Hamiltonian                      ... done (   0.0 sec)
Back transforming the eigenvectors                 ... done (   0.0 sec)
Now organizing SCF variables                       ... done
                      ------------------
                      INITIAL GUESS DONE (   0.4 sec)
                      ------------------
             **** ENERGY FILE WAS UPDATED (Ibuprofen\Ibuprofen_TPSS_STO-3G\Ibuprofen_TPSS_STO-3G.orcainp.en.tmp) ****
Finished Guess after   0.4 sec
Maximum memory used throughout the entire GUESS-calculation: 21.5 MB

-------------------------------------------------------------------------------------------
                                      ORCA LEAN-SCF
                              memory conserving SCF solver
-------------------------------------------------------------------------------------------

--------------------
CPCM SOLVATION MODEL
--------------------
CPCM parameters:
  Epsilon                                         ...      80.1510
  Refrac                                          ...       1.3328
  Rsolv                                           ...       1.3000
  Surface type                                    ... GAUSSIAN VDW
  Discretization scheme                           ... Constant charge density
    Threshold for H atoms                         ...       5.0000 (charges/Ang^2)
    Threshold for non-H atoms                     ...       5.0000 (charges/Ang^2)
  Epsilon function type                           ...         CPCM
Solvent:                                          ... WATER
Radii:
  Scheme                                          ... Element-dependent radii
  Radius for C  used is    3.8550 Bohr (=   2.0400 Ang.)
  Radius for O  used is    3.4469 Bohr (=   1.8240 Ang.)
  Radius for H  used is    2.4944 Bohr (=   1.3200 Ang.)
Calculating surface                               ...        done! (  0.0s)
Cavity surface points                             ...         2777
Cavity Volume                                     ...    1837.0921
Cavity Surface-area                               ...     985.9078
Calculating surface distance matrix               ...        done! (  0.0s)
Performing Cholesky decomposition & store         ...        done! (  0.1s)
Overall time for CPCM initialization              ...                 0.2s

----------------------------------------D-I-I-S--------------------------------------------
Iteration    Energy (Eh)           Delta-E    RMSDP     MaxDP     DIISErr   Damp  Time(sec)
-------------------------------------------------------------------------------------------
               ***  Starting incremental Fock matrix formation  ***
    1    -648.5323910292701157     0.00e+00  6.86e-03  1.35e-01  2.08e-01  0.700   1.0
    2    -648.6220786173524857    -8.97e-02  4.67e-03  8.66e-02  7.87e-02  0.700   1.0
                               ***Turning on AO-DIIS***
    3    -648.6556764942655491    -3.36e-02  1.90e-03  2.86e-02  4.74e-02  0.700   1.0
    4    -648.6768576864186571    -2.12e-02  2.79e-03  4.16e-02  2.44e-02  0.000   0.9
    5    -648.7220733706047895    -4.52e-02  6.44e-04  8.63e-03  7.55e-03  0.000   0.9
                              *** Initializing SOSCF ***
---------------------------------------S-O-S-C-F--------------------------------------
Iteration    Energy (Eh)           Delta-E    RMSDP     MaxDP     MaxGrad    Time(sec)
--------------------------------------------------------------------------------------
    6    -648.7225112481054339    -4.38e-04  1.15e-04  1.98e-03  1.36e-03     0.9
               *** Restarting incremental Fock matrix formation ***
    7    -648.7225237496742238    -1.25e-05  6.59e-05  7.06e-04  1.19e-04     1.0
    8    -648.7225238371100886    -8.74e-08  3.83e-05  9.96e-04  3.06e-04     0.9
    9    -648.7225245590055920    -7.22e-07  3.57e-05  8.87e-04  2.39e-04     0.8
   10    -648.7225244498332586     1.09e-07  2.17e-05  3.96e-04  1.58e-04     0.8
   11    -648.7225248376586251    -3.88e-07  1.11e-05  2.69e-04  4.05e-05     0.8
   12    -648.7225248106295794     2.70e-08  7.02e-06  1.51e-04  5.52e-05     0.8
   13    -648.7225248583439452    -4.77e-08  1.16e-06  2.16e-05  3.59e-06     0.8
   14    -648.7225248592193338    -8.75e-10  6.58e-07  1.33e-05  4.80e-06     0.7
                 **** Energy Check signals convergence ****

               *****************************************************
               *                     SUCCESS                       *
               *           SCF CONVERGED AFTER  14 CYCLES          *
               *****************************************************

             **** ENERGY FILE WAS UPDATED (Ibuprofen\Ibuprofen_TPSS_STO-3G\Ibuprofen_TPSS_STO-3G.orcainp.en.tmp) ****

----------------
TOTAL SCF ENERGY
----------------

Total Energy       :       -648.72252485921933 Eh          -17652.63734 eV

Components:
Nuclear Repulsion  :        969.19647273182011 Eh           26373.17681 eV
Electronic Energy  :      -1617.91076643071369 Eh          -44025.59017 eV
One Electron Energy:      -2806.52059752841296 Eh          -76369.30800 eV
Two Electron Energy:       1188.60983109769927 Eh           32343.71783 eV
CPCM Dielectric    :         -0.00823116032573 Eh              -0.22398 eV

Virial components:
Potential Energy   :      -1286.98076410333897 Eh          -35020.52700 eV
Kinetic Energy     :        638.25823924411964 Eh           17367.88966 eV
Virial Ratio       :          2.01639506546362

DFT components:
N(Alpha)           :       56.000022119203 electrons
N(Beta)            :       56.000022119203 electrons
N(Total)           :      112.000044238406 electrons
E(X)               :      -90.991274878787 Eh       
E(C)               :       -3.822020419198 Eh       
E(XC)              :      -94.813295297985 Eh       

CPCM Solvation Model Properties:
Surface-charge          :         -0.01381869910669
Corrected charge        :          0.00000000000000
Outlying charge corr.   :          0.00001113490340 Eh               0.00030 eV
Free-energy (cav+disp)  :  This term is not implemented in the current solvation scheme

---------------
SCF CONVERGENCE
---------------

  Last Energy change         ...    8.7539e-10  Tolerance :   1.0000e-08
  Last MAX-Density change    ...    1.3296e-05  Tolerance :   1.0000e-07
  Last RMS-Density change    ...    6.5808e-07  Tolerance :   5.0000e-09
  Last DIIS Error            ...    1.3556e-03  Tolerance :   5.0000e-07
  Last Orbital Gradient      ...    4.7984e-06  Tolerance :   1.0000e-05
  Last Orbital Rotation      ...    5.3826e-06  Tolerance :   1.0000e-05


----------------
ORBITAL ENERGIES
----------------

  NO   OCC          E(Eh)            E(eV) 
   0   2.0000     -18.694054      -508.6911 
   1   2.0000     -18.617662      -506.6123 
   2   2.0000      -9.914746      -269.7940 
   3   2.0000      -9.848428      -267.9893 
   4   2.0000      -9.838099      -267.7083 
   5   2.0000      -9.832612      -267.5590 
   6   2.0000      -9.829007      -267.4609 
   7   2.0000      -9.827964      -267.4325 
   8   2.0000      -9.825869      -267.3755 
   9   2.0000      -9.819039      -267.1896 
  10   2.0000      -9.818973      -267.1878 
  11   2.0000      -9.818537      -267.1760 
  12   2.0000      -9.817604      -267.1506 
  13   2.0000      -9.817378      -267.1444 
  14   2.0000      -9.816939      -267.1325 
  15   2.0000      -0.960456       -26.1353 
  16   2.0000      -0.879503       -23.9325 
  17   2.0000      -0.758889       -20.6504 
  18   2.0000      -0.719172       -19.5697 
  19   2.0000      -0.694068       -18.8865 
  20   2.0000      -0.647740       -17.6259 
  21   2.0000      -0.644314       -17.5327 
  22   2.0000      -0.596341       -16.2273 
  23   2.0000      -0.588015       -16.0007 
  24   2.0000      -0.556144       -15.1335 
  25   2.0000      -0.520487       -14.1632 
  26   2.0000      -0.500837       -13.6285 
  27   2.0000      -0.487177       -13.2568 
  28   2.0000      -0.476706       -12.9718 
  29   2.0000      -0.428585       -11.6624 
  30   2.0000      -0.405010       -11.0209 
  31   2.0000      -0.392169       -10.6714 
  32   2.0000      -0.377334       -10.2678 
  33   2.0000      -0.363993        -9.9047 
  34   2.0000      -0.356942        -9.7129 
  35   2.0000      -0.351915        -9.5761 
  36   2.0000      -0.336602        -9.1594 
  37   2.0000      -0.333056        -9.0629 
  38   2.0000      -0.323206        -8.7949 
  39   2.0000      -0.310674        -8.4539 
  40   2.0000      -0.308542        -8.3958 
  41   2.0000      -0.300548        -8.1783 
  42   2.0000      -0.294836        -8.0229 
  43   2.0000      -0.282845        -7.6966 
  44   2.0000      -0.271629        -7.3914 
  45   2.0000      -0.267219        -7.2714 
  46   2.0000      -0.253249        -6.8912 
  47   2.0000      -0.252697        -6.8762 
  48   2.0000      -0.247985        -6.7480 
  49   2.0000      -0.244957        -6.6656 
  50   2.0000      -0.231443        -6.2979 
  51   2.0000      -0.201405        -5.4805 
  52   2.0000      -0.168662        -4.5895 
  53   2.0000      -0.160195        -4.3591 
  54   2.0000      -0.140550        -3.8246 
  55   2.0000      -0.097459        -2.6520 
  56   0.0000       0.058166         1.5828 
  57   0.0000       0.062101         1.6899 
  58   0.0000       0.092130         2.5070 
  59   0.0000       0.206076         5.6076 
  60   0.0000       0.285460         7.7678 
  61   0.0000       0.300429         8.1751 
  62   0.0000       0.323122         8.7926 
  63   0.0000       0.329713         8.9720 
  64   0.0000       0.336594         9.1592 
  65   0.0000       0.352469         9.5912 
  66   0.0000       0.372803        10.1445 
*Only the first 10 virtual orbitals were printed.

                    ********************************
                    * MULLIKEN POPULATION ANALYSIS *
                    ********************************

-----------------------
MULLIKEN ATOMIC CHARGES
-----------------------
   0 C :   -0.207049
   1 C :   -0.040290
   2 C :   -0.205843
   3 C :   -0.129349
   4 C :   -0.003745
   5 C :   -0.085128
   6 C :   -0.082971
   7 C :   -0.022452
   8 C :   -0.090590
   9 C :   -0.083548
  10 C :   -0.083168
  11 C :   -0.201682
  12 C :    0.216454
  13 O :   -0.243919
  14 O :   -0.236428
  15 H :    0.067575
  16 H :    0.066572
  17 H :    0.067645
  18 H :    0.068549
  19 H :    0.066926
  20 H :    0.068107
  21 H :    0.067042
  22 H :    0.071930
  23 H :    0.075044
  24 H :    0.079581
  25 H :    0.079825
  26 H :    0.080392
  27 H :    0.079313
  28 H :    0.088540
  29 H :    0.073496
  30 H :    0.074494
  31 H :    0.075518
  32 H :    0.249161
Sum of atomic charges:    0.0000000

--------------------------------
MULLIKEN REDUCED ORBITAL CHARGES
--------------------------------
  0 C s       :     3.189536  s :     3.189536
      pz      :     0.988479  p :     3.017512
      px      :     1.023361
      py      :     1.005672

  1 C s       :     3.173488  s :     3.173488
      pz      :     0.931007  p :     2.866803
      px      :     0.947986
      py      :     0.987809

  2 C s       :     3.190053  s :     3.190053
      pz      :     1.026774  p :     3.015790
      px      :     0.962734
      py      :     1.026283

  3 C s       :     3.184765  s :     3.184765
      pz      :     0.977540  p :     2.944584
      px      :     0.943397
      py      :     1.023647

  4 C s       :     3.141461  s :     3.141461
      pz      :     0.980086  p :     2.862284
      px      :     0.936026
      py      :     0.946172

  5 C s       :     3.150235  s :     3.150235
      pz      :     1.007087  p :     2.934893
      px      :     0.951699
      py      :     0.976107

  6 C s       :     3.152648  s :     3.152648
      pz      :     1.005770  p :     2.930323
      px      :     0.959047
      py      :     0.965506

  7 C s       :     3.145345  s :     3.145345
      pz      :     1.006213  p :     2.877107
      px      :     0.922241
      py      :     0.948654

  8 C s       :     3.151913  s :     3.151913
      pz      :     1.008928  p :     2.938677
      px      :     0.955240
      py      :     0.974509

  9 C s       :     3.150846  s :     3.150846
      pz      :     1.008283  p :     2.932701
      px      :     0.956078
      py      :     0.968340

 10 C s       :     3.180330  s :     3.180330
      pz      :     0.958635  p :     2.902838
      px      :     0.934453
      py      :     1.009750

 11 C s       :     3.191871  s :     3.191871
      pz      :     0.960724  p :     3.009811
      px      :     1.028279
      py      :     1.020808

 12 C s       :     3.086793  s :     3.086793
      pz      :     0.888698  p :     2.696752
      px      :     0.829014
      py      :     0.979041

 13 O s       :     3.819677  s :     3.819677
      pz      :     1.518270  p :     4.424243
      px      :     1.215645
      py      :     1.690328

 14 O s       :     3.887660  s :     3.887660
      pz      :     1.697038  p :     4.348769
      px      :     1.269851
      py      :     1.381879

 15 H s       :     0.932425  s :     0.932425

 16 H s       :     0.933428  s :     0.933428

 17 H s       :     0.932355  s :     0.932355

 18 H s       :     0.931451  s :     0.931451

 19 H s       :     0.933074  s :     0.933074

 20 H s       :     0.931893  s :     0.931893

 21 H s       :     0.932958  s :     0.932958

 22 H s       :     0.928070  s :     0.928070

 23 H s       :     0.924956  s :     0.924956

 24 H s       :     0.920419  s :     0.920419

 25 H s       :     0.920175  s :     0.920175

 26 H s       :     0.919608  s :     0.919608

 27 H s       :     0.920687  s :     0.920687

 28 H s       :     0.911460  s :     0.911460

 29 H s       :     0.926504  s :     0.926504

 30 H s       :     0.925506  s :     0.925506

 31 H s       :     0.924482  s :     0.924482

 32 H s       :     0.750839  s :     0.750839



                     *******************************
                     * LOEWDIN POPULATION ANALYSIS *
                     *******************************

----------------------
LOEWDIN ATOMIC CHARGES
----------------------
   0 C :   -0.113242
   1 C :    0.005283
   2 C :   -0.111573
   3 C :   -0.062328
   4 C :    0.004953
   5 C :   -0.051867
   6 C :   -0.049999
   7 C :   -0.015191
   8 C :   -0.056342
   9 C :   -0.050918
  10 C :   -0.048066
  11 C :   -0.103858
  12 C :    0.132470
  13 O :   -0.133926
  14 O :   -0.186146
  15 H :    0.034961
  16 H :    0.033980
  17 H :    0.034943
  18 H :    0.031568
  19 H :    0.034161
  20 H :    0.035376
  21 H :    0.034308
  22 H :    0.036669
  23 H :    0.039866
  24 H :    0.042996
  25 H :    0.043043
  26 H :    0.043661
  27 H :    0.042706
  28 H :    0.050246
  29 H :    0.039316
  30 H :    0.040010
  31 H :    0.040964
  32 H :    0.181975

-------------------------------
LOEWDIN REDUCED ORBITAL CHARGES
-------------------------------
  0 C s       :     3.012396  s :     3.012396
      pz      :     1.020708  p :     3.100845
      px      :     1.046689
      py      :     1.033448

  1 C s       :     3.026386  s :     3.026386
      pz      :     0.970378  p :     2.968331
      px      :     0.984716
      py      :     1.013237

  2 C s       :     3.012753  s :     3.012753
      pz      :     1.048779  p :     3.098820
      px      :     1.001608
      py      :     1.048434

  3 C s       :     3.023841  s :     3.023841
      pz      :     1.007936  p :     3.038487
      px      :     0.984893
      py      :     1.045658

  4 C s       :     3.032915  s :     3.032915
      pz      :     0.980901  p :     2.962132
      px      :     0.981610
      py      :     0.999621

  5 C s       :     3.027003  s :     3.027003
      pz      :     1.008043  p :     3.024864
      px      :     1.004783
      py      :     1.012038

  6 C s       :     3.029546  s :     3.029546
      pz      :     1.007045  p :     3.020453
      px      :     1.008480
      py      :     1.004927

  7 C s       :     3.037395  s :     3.037395
      pz      :     1.007012  p :     2.977796
      px      :     0.969578
      py      :     1.001206

  8 C s       :     3.028263  s :     3.028263
      pz      :     1.009991  p :     3.028080
      px      :     1.007755
      py      :     1.010333

  9 C s       :     3.027744  s :     3.027744
      pz      :     1.009536  p :     3.023174
      px      :     1.006053
      py      :     1.007584

 10 C s       :     3.037094  s :     3.037094
      pz      :     1.000006  p :     3.010972
      px      :     0.976015
      py      :     1.034951

 11 C s       :     3.013319  s :     3.013319
      pz      :     0.996219  p :     3.090539
      px      :     1.050008
      py      :     1.044312

 12 C s       :     3.049152  s :     3.049152
      pz      :     0.926970  p :     2.818377
      px      :     0.903537
      py      :     0.987870

 13 O s       :     3.671256  s :     3.671256
      pz      :     1.537736  p :     4.462671
      px      :     1.231116
      py      :     1.693819

 14 O s       :     3.772041  s :     3.772041
      pz      :     1.703835  p :     4.414105
      px      :     1.323108
      py      :     1.387162

 15 H s       :     0.965039  s :     0.965039

 16 H s       :     0.966020  s :     0.966020

 17 H s       :     0.965057  s :     0.965057

 18 H s       :     0.968432  s :     0.968432

 19 H s       :     0.965839  s :     0.965839

 20 H s       :     0.964624  s :     0.964624

 21 H s       :     0.965692  s :     0.965692

 22 H s       :     0.963331  s :     0.963331

 23 H s       :     0.960134  s :     0.960134

 24 H s       :     0.957004  s :     0.957004

 25 H s       :     0.956957  s :     0.956957

 26 H s       :     0.956339  s :     0.956339

 27 H s       :     0.957294  s :     0.957294

 28 H s       :     0.949754  s :     0.949754

 29 H s       :     0.960684  s :     0.960684

 30 H s       :     0.959990  s :     0.959990

 31 H s       :     0.959036  s :     0.959036

 32 H s       :     0.818025  s :     0.818025



                      *****************************
                      * MAYER POPULATION ANALYSIS *
                      *****************************

  NA   - Mulliken gross atomic population
  ZA   - Total nuclear charge
  QA   - Mulliken gross atomic charge
  VA   - Mayer's total valence
  BVA  - Mayer's bonded valence
  FA   - Mayer's free valence

  ATOM       NA         ZA         QA         VA         BVA        FA
  0 C      6.2070     6.0000    -0.2070     3.9606     3.9606     0.0000
  1 C      6.0403     6.0000    -0.0403     3.9599     3.9599     0.0000
  2 C      6.2058     6.0000    -0.2058     3.9604     3.9604     0.0000
  3 C      6.1293     6.0000    -0.1293     3.9589     3.9589    -0.0000
  4 C      6.0037     6.0000    -0.0037     3.9720     3.9720    -0.0000
  5 C      6.0851     6.0000    -0.0851     3.9698     3.9698    -0.0000
  6 C      6.0830     6.0000    -0.0830     3.9686     3.9686    -0.0000
  7 C      6.0225     6.0000    -0.0225     3.9696     3.9696     0.0000
  8 C      6.0906     6.0000    -0.0906     3.9692     3.9692     0.0000
  9 C      6.0835     6.0000    -0.0835     3.9692     3.9692     0.0000
 10 C      6.0832     6.0000    -0.0832     3.9597     3.9597    -0.0000
 11 C      6.2017     6.0000    -0.2017     3.9555     3.9555     0.0000
 12 C      5.7835     6.0000     0.2165     3.9121     3.9121     0.0000
 13 O      8.2439     8.0000    -0.2439     2.3199     2.3199    -0.0000
 14 O      8.2364     8.0000    -0.2364     2.2763     2.2763     0.0000
 15 H      0.9324     1.0000     0.0676     0.9954     0.9954    -0.0000
 16 H      0.9334     1.0000     0.0666     0.9956     0.9956     0.0000
 17 H      0.9324     1.0000     0.0676     0.9954     0.9954    -0.0000
 18 H      0.9315     1.0000     0.0685     0.9953     0.9953     0.0000
 19 H      0.9331     1.0000     0.0669     0.9955     0.9955    -0.0000
 20 H      0.9319     1.0000     0.0681     0.9954     0.9954     0.0000
 21 H      0.9330     1.0000     0.0670     0.9955     0.9955     0.0000
 22 H      0.9281     1.0000     0.0719     0.9948     0.9948     0.0000
 23 H      0.9250     1.0000     0.0750     0.9944     0.9944     0.0000
 24 H      0.9204     1.0000     0.0796     0.9937     0.9937     0.0000
 25 H      0.9202     1.0000     0.0798     0.9936     0.9936     0.0000
 26 H      0.9196     1.0000     0.0804     0.9935     0.9935     0.0000
 27 H      0.9207     1.0000     0.0793     0.9937     0.9937     0.0000
 28 H      0.9115     1.0000     0.0885     0.9922     0.9922    -0.0000
 29 H      0.9265     1.0000     0.0735     0.9946     0.9946    -0.0000
 30 H      0.9255     1.0000     0.0745     0.9945     0.9945    -0.0000
 31 H      0.9245     1.0000     0.0755     0.9943     0.9943    -0.0000
 32 H      0.7508     1.0000     0.2492     0.9379     0.9379    -0.0000

  Mayer bond orders larger than 0.100000
B(  0-C ,  1-C ) :   0.9949 B(  0-C , 15-H ) :   0.9776 B(  0-C , 16-H ) :   0.9778 
B(  0-C , 17-H ) :   0.9761 B(  1-C ,  2-C ) :   0.9929 B(  1-C ,  3-C ) :   0.9682 
B(  1-C , 18-H ) :   0.9570 B(  2-C , 19-H ) :   0.9777 B(  2-C , 20-H ) :   0.9771 
B(  2-C , 21-H ) :   0.9777 B(  3-C ,  4-C ) :   0.9955 B(  3-C , 22-H ) :   0.9657 
B(  3-C , 23-H ) :   0.9580 B(  4-C ,  5-C ) :   1.3999 B(  4-C ,  7-C ) :   0.1070 
B(  4-C ,  9-C ) :   1.4027 B(  5-C ,  6-C ) :   1.4405 B(  5-C ,  8-C ) :   0.1119 
B(  5-C , 24-H ) :   0.9594 B(  6-C ,  7-C ) :   1.3942 B(  6-C ,  9-C ) :   0.1097 
B(  6-C , 25-H ) :   0.9592 B(  7-C ,  8-C ) :   1.3910 B(  7-C , 10-C ) :   0.9838 
B(  8-C ,  9-C ) :   1.4370 B(  8-C , 26-H ) :   0.9588 B(  9-C , 27-H ) :   0.9594 
B( 10-C , 11-C ) :   0.9782 B( 10-C , 12-C ) :   0.8917 B( 10-C , 28-H ) :   0.9448 
B( 11-C , 29-H ) :   0.9762 B( 11-C , 30-H ) :   0.9763 B( 11-C , 31-H ) :   0.9735 
B( 12-C , 13-O ) :   1.1011 B( 12-C , 14-O ) :   1.8634 B( 13-O , 14-O ) :   0.2621 
B( 13-O , 32-H ) :   0.8766 

-------
TIMINGS
-------

Total SCF time: 0 days 0 hours 0 min 12 sec 

Total time                  ....      12.808 sec
Sum of individual times     ....      12.723 sec  ( 99.3%)

SCF preparation             ....       0.229 sec  (  1.8%)
Fock matrix formation       ....      12.385 sec  ( 96.7%)
  Startup                   ....       0.013 sec  (  0.1% of F)
  Split-RI-J                ....       2.436 sec  ( 19.7% of F)
  XC integration            ....       5.163 sec  ( 41.7% of F)
    Basis function eval.    ....       1.510 sec  ( 29.2% of XC)
    Density eval.           ....       1.358 sec  ( 26.3% of XC)
    XC-Functional eval.     ....       0.816 sec  ( 15.8% of XC)
    XC-Potential eval.      ....       0.952 sec  ( 18.4% of XC)
  CPCM terms                ....       4.706 sec  ( 38.0% of F)
Diagonalization             ....       0.000 sec  (  0.0%)
Density matrix formation    ....       0.027 sec  (  0.2%)
Total Energy calculation    ....       0.012 sec  (  0.1%)
Population analysis         ....       0.009 sec  (  0.1%)
Orbital Transformation      ....       0.005 sec  (  0.0%)
Orbital Orthonormalization  ....       0.000 sec  (  0.0%)
DIIS solution               ....       0.029 sec  (  0.2%)
SOSCF solution              ....       0.027 sec  (  0.2%)
Finished LeanSCF after  12.9 sec

Maximum memory used throughout the entire LEANSCF-calculation: 66.2 MB

-------------------------   --------------------
FINAL SINGLE POINT ENERGY      -648.722524859219
-------------------------   --------------------

------------------------------------------------------------------------------
                         ORCA SCF GRADIENT CALCULATION
------------------------------------------------------------------------------

Nuc. rep. gradient        (SHARK) ... done (  0.0 sec)
HCore & Overlap gradient  (SHARK) ... done (  0.1 sec)
Split-RIJ-J gradient      (SHARK) ... done (  0.6 sec)
XC gradient                       ... done (  3.5 sec)
CPCM gradient                     ... done (  0.6 sec)

------------------
CARTESIAN GRADIENT
------------------

   1   C   :   -0.007142257   -0.008029970   -0.012702088
   2   C   :    0.000762635    0.005597369   -0.002801857
   3   C   :    0.016193707    0.003550193    0.001378298
   4   C   :    0.007053614   -0.002478412    0.013157463
   5   C   :    0.005201562   -0.003184035   -0.000925087
   6   C   :   -0.005682098    0.005348322   -0.001373110
   7   C   :    0.005388300    0.006544394    0.000538572
   8   C   :   -0.005703637    0.001053055   -0.004343777
   9   C   :    0.001179536   -0.007164352    0.001315428
  10   C   :   -0.003981932   -0.006065233   -0.000245702
  11   C   :    0.012342184    0.020884849    0.020347849
  12   C   :   -0.007675428   -0.007843800    0.019605427
  13   C   :    0.031703967    0.013404189    0.015398598
  14   O   :   -0.037382842   -0.045015771   -0.072339221
  15   O   :   -0.069406864   -0.016951725   -0.001117516
  16   H   :    0.004418523    0.003080187   -0.006477329
  17   H   :    0.003356879   -0.006930727    0.001247260
  18   H   :   -0.008389870   -0.000790774    0.001358037
  19   H   :   -0.006162703    0.009723635    0.000159055
  20   H   :    0.002493670   -0.007390314    0.001370320
  21   H   :    0.002209145    0.002676482   -0.007182911
  22   H   :    0.002338196    0.004629920    0.006662033
  23   H   :    0.001688756   -0.007749812   -0.000803186
  24   H   :    0.005449482    0.008579691    0.004329384
  25   H   :    0.006019159    0.010319442   -0.001410856
  26   H   :   -0.009279113    0.008078207   -0.000671990
  27   H   :   -0.006831842   -0.009283609    0.001145121
  28   H   :    0.007571180   -0.008146643    0.000616578
  29   H   :   -0.001286910    0.010805255    0.001190161
  30   H   :    0.004314988   -0.006619884   -0.000758817
  31   H   :    0.003452562    0.004785981    0.004967784
  32   H   :   -0.008575814    0.001590110   -0.001941577
  33   H   :    0.054363265    0.022993780    0.020307657

Difference to translation invariance:
           :    0.0000000000    0.0000000000   -0.0000000000

Difference to rotation invariance:
           :   -0.0003492775    0.0002500168   -0.0004206613

Norm of the Cartesian gradient     ...    0.1527775378
RMS gradient                       ...    0.0153547203
MAX gradient                       ...    0.0723392207

-------
TIMINGS
-------

Total SCF gradient time     ....        5.158 sec

One electron gradient       ....       0.105 sec  (  2.0%)
RI-J Coulomb gradient       ....       0.619 sec  ( 12.0%)
XC gradient                 ....       3.541 sec  ( 68.7%)
CPCM gradient               ....       0.586 sec  ( 11.4%)
   A-Matrix (El+Nuc)        ....       0.224 sec  (  4.3%)
   Potential                ....       0.362 sec  (  7.0%)

Maximum memory used throughout the entire SCFGRAD-calculation: 23.1 MB
------------------------------------------------------------------------------
                         ORCA GEOMETRY RELAXATION STEP
------------------------------------------------------------------------------

Reading the OPT-File                    .... done
Getting information on internals        .... done
Copying old internal coords+grads       .... done
Making the new internal coordinates     .... (2022 redundants) done
Validating the new internal coordinates .... (2022 redundants) done
Calculating the B-matrix                .... done
Calculating the G,G- and P matrices     .... done
Transforming gradient to internals      .... done
Projecting the internal gradient        .... done
Number of atoms                         ....  33
Number of internal coordinates          .... 157
Current Energy                          ....  -648.722524859 Eh
Current gradient norm                   ....     0.152777538 Eh/bohr
Maximum allowed component of the step   ....  0.300
Current trust radius                    ....  0.300
Evaluating the initial hessian          ....  (Almloef) done
Projecting the Hessian                  .... done
Forming the augmented Hessian           .... done
Diagonalizing the augmented Hessian     .... done
Last element of RFO vector              ....  0.959626643
Lowest eigenvalues of augmented Hessian:
 -0.041231362  0.001675199  0.010563023  0.010671554  0.010927370
Length of the computed step             ....  0.293110789
The final length of the internal step   ....  0.293110789
Converting the step to Cartesian space:
 Initial RMS(Int)=    0.0233927876
Transforming coordinates:
 Iter   0:  RMS(Cart)=    0.0794027108 RMS(Int)=    0.5019444396
 Iter   5:  RMS(Cart)=    0.0000003896 RMS(Int)=    0.0000002121
done
Storing new coordinates                 .... done

                                .--------------------.
          ----------------------|Geometry convergence|-------------------------
          Item                value                   Tolerance       Converged
          ---------------------------------------------------------------------
          RMS gradient        0.0120513031            0.0001000000      NO
          MAX gradient        0.0713012470            0.0003000000      NO
          RMS step            0.0233927876            0.0020000000      NO
          MAX step            0.1191467260            0.0040000000      NO
          ........................................................
          Max(Bonds)      0.0630      Max(Angles)    5.05
          Max(Dihed)        1.21      Max(Improp)    0.00
          ---------------------------------------------------------------------

The optimization has not yet converged - more geometry cycles are needed


    ---------------------------------------------------------------------------
                         Redundant Internal Coordinates
                            (Angstroem and degrees)

        Definition                    Value    dE/dq     Step     New-Value
    ----------------------------------------------------------------------------
     1. B(C   1,C   0)                1.5308 -0.022282  0.0284    1.5592   
     2. B(C   2,C   1)                1.5305 -0.023467  0.0300    1.5604   
     3. B(C   3,C   1)                1.5434 -0.020226  0.0271    1.5706   
     4. B(C   4,C   3)                1.5141 -0.024247  0.0296    1.5437   
     5. B(C   5,C   4)                1.3995 -0.021496  0.0177    1.4172   
     6. B(C   6,C   5)                1.3983 -0.015638  0.0128    1.4111   
     7. B(C   7,C   6)                1.4025 -0.018590  0.0154    1.4179   
     8. B(C   8,C   7)                1.4034 -0.018224  0.0151    1.4186   
     9. B(C   9,C   8)                1.3966 -0.017668  0.0145    1.4111   
    10. B(C   9,C   4)                1.3991 -0.021250  0.0176    1.4167   
    11. B(C  10,C   7)                1.5239 -0.018296  0.0232    1.5471   
    12. B(C  11,C  10)                1.5329 -0.024694  0.0318    1.5647   
    13. B(C  12,C  10)                1.5269 -0.049826  0.0630    1.5900   
    14. B(O  13,C  12)                1.3526 -0.056682  0.0438    1.3964   
    15. B(O  14,C  12)                1.2244 -0.071301  0.0353    1.2597   
    16. B(H  15,C   0)                1.0949 -0.008216  0.0110    1.1059   
    17. B(H  16,C   0)                1.0953 -0.007767  0.0104    1.1057   
    18. B(H  17,C   0)                1.0946 -0.008574  0.0112    1.1058   
    19. B(H  18,C   1)                1.0957 -0.011184  0.0150    1.1107   
    20. B(H  19,C   2)                1.0952 -0.007847  0.0105    1.1057   
    21. B(H  20,C   2)                1.0953 -0.007957  0.0107    1.1060   
    22. B(H  21,C   2)                1.0949 -0.008403  0.0113    1.1062   
[...]
      pz      :     1.020334  p :     2.998594
      px      :     0.959804
      py      :     1.018456

  3 C s       :     3.201735  s :     3.201735
      pz      :     0.971084  p :     2.922367
      px      :     0.932420
      py      :     1.018863

  4 C s       :     3.163683  s :     3.163683
      pz      :     0.974974  p :     2.839344
      px      :     0.928359
      py      :     0.936011

  5 C s       :     3.163644  s :     3.163644
      pz      :     1.005838  p :     2.918646
      px      :     0.942873
      py      :     0.969936

  6 C s       :     3.166455  s :     3.166455
      pz      :     1.002668  p :     2.914458
      px      :     0.953216
      py      :     0.958574

  7 C s       :     3.165645  s :     3.165645
      pz      :     1.008875  p :     2.865378
      px      :     0.916528
      py      :     0.939975

  8 C s       :     3.165543  s :     3.165543
      pz      :     1.002546  p :     2.917800
      px      :     0.946450
      py      :     0.968804

  9 C s       :     3.164083  s :     3.164083
      pz      :     1.006133  p :     2.917127
      px      :     0.948773
      py      :     0.962222

 10 C s       :     3.211191  s :     3.211191
      pz      :     0.940748  p :     2.859348
      px      :     0.922238
      py      :     0.996362

 11 C s       :     3.202259  s :     3.202259
      pz      :     0.969798  p :     2.994760
      px      :     1.019873
      py      :     1.005089

 12 C s       :     3.166724  s :     3.166724
      pz      :     0.873720  p :     2.658271
      px      :     0.827427
      py      :     0.957124

 13 O s       :     3.877323  s :     3.877323
      pz      :     1.429999  p :     4.327668
      px      :     1.217931
      py      :     1.679738

 14 O s       :     3.898220  s :     3.898220
      pz      :     1.760058  p :     4.319141
      px      :     1.262945
      py      :     1.296138

 15 H s       :     0.933910  s :     0.933910

 16 H s       :     0.935082  s :     0.935082

 17 H s       :     0.933370  s :     0.933370

 18 H s       :     0.936462  s :     0.936462

 19 H s       :     0.934487  s :     0.934487

 20 H s       :     0.933307  s :     0.933307

 21 H s       :     0.933898  s :     0.933898

 22 H s       :     0.929277  s :     0.929277

 23 H s       :     0.926950  s :     0.926950

 24 H s       :     0.921115  s :     0.921115

 25 H s       :     0.919951  s :     0.919951

 26 H s       :     0.919186  s :     0.919186

 27 H s       :     0.921149  s :     0.921149

 28 H s       :     0.915551  s :     0.915551

 29 H s       :     0.926472  s :     0.926472

 30 H s       :     0.925531  s :     0.925531

 31 H s       :     0.923930  s :     0.923930

 32 H s       :     0.792909  s :     0.792909



                     *******************************
                     * LOEWDIN POPULATION ANALYSIS *
                     *******************************

----------------------
LOEWDIN ATOMIC CHARGES
----------------------
   0 C :   -0.108655
   1 C :    0.007560
   2 C :   -0.107108
   3 C :   -0.058452
   4 C :    0.005409
   5 C :   -0.049714
   6 C :   -0.047823
   7 C :   -0.022554
   8 C :   -0.049545
   9 C :   -0.048896
  10 C :   -0.035555
  11 C :   -0.100863
  12 C :    0.105504
  13 O :   -0.125420
  14 O :   -0.169495
  15 H :    0.034078
  16 H :    0.032962
  17 H :    0.034490
  18 H :    0.027844
  19 H :    0.033357
  20 H :    0.034547
  21 H :    0.033941
  22 H :    0.036028
  23 H :    0.038468
  24 H :    0.042982
  25 H :    0.043830
  26 H :    0.044616
  27 H :    0.042903
  28 H :    0.046898
  29 H :    0.039853
  30 H :    0.040499
  31 H :    0.042013
  32 H :    0.156298

-------------------------------
LOEWDIN REDUCED ORBITAL CHARGES
-------------------------------
  0 C s       :     3.025991  s :     3.025991
      pz      :     1.022013  p :     3.082664
      px      :     1.041521
      py      :     1.019130

  1 C s       :     3.055698  s :     3.055698
      pz      :     0.960520  p :     2.936743
      px      :     0.976402
      py      :     0.999821

  2 C s       :     3.026767  s :     3.026767
      pz      :     1.042467  p :     3.080341
      px      :     0.996603
      py      :     1.041272

  3 C s       :     3.044217  s :     3.044217
      pz      :     1.001910  p :     3.014235
      px      :     0.972594
      py      :     1.039731

  4 C s       :     3.056429  s :     3.056429
      pz      :     0.975527  p :     2.938161
      px      :     0.972824
      py      :     0.989810

  5 C s       :     3.041665  s :     3.041665
      pz      :     1.006560  p :     3.008050
      px      :     0.995943
      py      :     1.005546

  6 C s       :     3.044284  s :     3.044284
      pz      :     1.003637  p :     3.003539
      px      :     1.001404
      py      :     0.998498

  7 C s       :     3.057563  s :     3.057563
      pz      :     1.009317  p :     2.964990
      px      :     0.962983
      py      :     0.992690

  8 C s       :     3.043041  s :     3.043041
      pz      :     1.003309  p :     3.006504
      px      :     0.998620
      py      :     1.004575

  9 C s       :     3.042163  s :     3.042163
      pz      :     1.007103  p :     3.006733
      px      :     0.997981
      py      :     1.001650

 10 C s       :     3.073007  s :     3.073007
      pz      :     0.979382  p :     2.962548
      px      :     0.962715
      py      :     1.020451

 11 C s       :     3.026155  s :     3.026155
      pz      :     1.001823  p :     3.074708
      px      :     1.042248
      py      :     1.030637

 12 C s       :     3.124713  s :     3.124713
      pz      :     0.911271  p :     2.769783
      px      :     0.890089
      py      :     0.968423

 13 O s       :     3.759995  s :     3.759995
      pz      :     1.448777  p :     4.365425
      px      :     1.235033
      py      :     1.681615

 14 O s       :     3.794048  s :     3.794048
      pz      :     1.765511  p :     4.375447
      px      :     1.305171
      py      :     1.304765

 15 H s       :     0.965922  s :     0.965922

 16 H s       :     0.967038  s :     0.967038

 17 H s       :     0.965510  s :     0.965510

 18 H s       :     0.972156  s :     0.972156

 19 H s       :     0.966643  s :     0.966643

 20 H s       :     0.965453  s :     0.965453

 21 H s       :     0.966059  s :     0.966059

 22 H s       :     0.963972  s :     0.963972

 23 H s       :     0.961532  s :     0.961532

 24 H s       :     0.957018  s :     0.957018

 25 H s       :     0.956170  s :     0.956170

 26 H s       :     0.955384  s :     0.955384

 27 H s       :     0.957097  s :     0.957097

 28 H s       :     0.953102  s :     0.953102

 29 H s       :     0.960147  s :     0.960147

 30 H s       :     0.959501  s :     0.959501

 31 H s       :     0.957987  s :     0.957987

 32 H s       :     0.843702  s :     0.843702



                      *****************************
                      * MAYER POPULATION ANALYSIS *
                      *****************************

  NA   - Mulliken gross atomic population
  ZA   - Total nuclear charge
  QA   - Mulliken gross atomic charge
  VA   - Mayer's total valence
  BVA  - Mayer's bonded valence
  FA   - Mayer's free valence

  ATOM       NA         ZA         QA         VA         BVA        FA
  0 C      6.2010     6.0000    -0.2010     3.9568     3.9568    -0.0000
  1 C      6.0357     6.0000    -0.0357     3.9485     3.9485    -0.0000
  2 C      6.1999     6.0000    -0.1999     3.9564     3.9564    -0.0000
  3 C      6.1241     6.0000    -0.1241     3.9513     3.9513    -0.0000
  4 C      6.0030     6.0000    -0.0030     3.9625     3.9625    -0.0000
  5 C      6.0823     6.0000    -0.0823     3.9644     3.9644    -0.0000
  6 C      6.0809     6.0000    -0.0809     3.9633     3.9633    -0.0000
  7 C      6.0310     6.0000    -0.0310     3.9614     3.9614    -0.0000
  8 C      6.0833     6.0000    -0.0833     3.9639     3.9639    -0.0000
  9 C      6.0812     6.0000    -0.0812     3.9640     3.9640    -0.0000
 10 C      6.0705     6.0000    -0.0705     3.9442     3.9442    -0.0000
 11 C      6.1970     6.0000    -0.1970     3.9520     3.9520    -0.0000
 12 C      5.8250     6.0000     0.1750     3.8879     3.8879    -0.0000
 13 O      8.2050     8.0000    -0.2050     2.3276     2.3276     0.0000
 14 O      8.2174     8.0000    -0.2174     2.2871     2.2871    -0.0000
 15 H      0.9339     1.0000     0.0661     0.9956     0.9956    -0.0000
 16 H      0.9351     1.0000     0.0649     0.9958     0.9958    -0.0000
 17 H      0.9334     1.0000     0.0666     0.9956     0.9956    -0.0000
 18 H      0.9365     1.0000     0.0635     0.9960     0.9960    -0.0000
 19 H      0.9345     1.0000     0.0655     0.9957     0.9957     0.0000
 20 H      0.9333     1.0000     0.0667     0.9956     0.9956     0.0000
 21 H      0.9339     1.0000     0.0661     0.9956     0.9956     0.0000
 22 H      0.9293     1.0000     0.0707     0.9950     0.9950     0.0000
 23 H      0.9270     1.0000     0.0730     0.9947     0.9947     0.0000
 24 H      0.9211     1.0000     0.0789     0.9938     0.9938    -0.0000
 25 H      0.9200     1.0000     0.0800     0.9936     0.9936    -0.0000
 26 H      0.9192     1.0000     0.0808     0.9935     0.9935    -0.0000
 27 H      0.9211     1.0000     0.0789     0.9938     0.9938    -0.0000
 28 H      0.9156     1.0000     0.0844     0.9929     0.9929    -0.0000
 29 H      0.9265     1.0000     0.0735     0.9946     0.9946    -0.0000
 30 H      0.9255     1.0000     0.0745     0.9945     0.9945    -0.0000
 31 H      0.9239     1.0000     0.0761     0.9942     0.9942     0.0000
 32 H      0.7929     1.0000     0.2071     0.9571     0.9571    -0.0000

  Mayer bond orders larger than 0.100000
B(  0-C ,  1-C ) :   0.9902 B(  0-C , 15-H ) :   0.9774 B(  0-C , 16-H ) :   0.9781 
B(  0-C , 17-H ) :   0.9761 B(  1-C ,  2-C ) :   0.9872 B(  1-C ,  3-C ) :   0.9593 
B(  1-C , 18-H ) :   0.9592 B(  2-C , 19-H ) :   0.9781 B(  2-C , 20-H ) :   0.9770 
B(  2-C , 21-H ) :   0.9774 B(  3-C ,  4-C ) :   0.9904 B(  3-C , 22-H ) :   0.9660 
B(  3-C , 23-H ) :   0.9609 B(  4-C ,  5-C ) :   1.3946 B(  4-C ,  7-C ) :   0.1070 
B(  4-C ,  9-C ) :   1.3945 B(  5-C ,  6-C ) :   1.4410 B(  5-C ,  8-C ) :   0.1098 
B(  5-C , 24-H ) :   0.9584 B(  6-C ,  7-C ) :   1.3777 B(  6-C ,  9-C ) :   0.1067 
B(  6-C , 25-H ) :   0.9577 B(  7-C ,  8-C ) :   1.3750 B(  7-C , 10-C ) :   0.9812 
B(  8-C ,  9-C ) :   1.4412 B(  8-C , 26-H ) :   0.9573 B(  9-C , 27-H ) :   0.9583 
B( 10-C , 11-C ) :   0.9784 B( 10-C , 12-C ) :   0.8588 B( 10-C , 28-H ) :   0.9477 
B( 11-C , 29-H ) :   0.9761 B( 11-C , 30-H ) :   0.9758 B( 11-C , 31-H ) :   0.9732 
B( 12-C , 13-O ) :   1.0842 B( 12-C , 14-O ) :   1.8896 B( 13-O , 14-O ) :   0.2537 
B( 13-O , 32-H ) :   0.8867 

-------
TIMINGS
-------

Total SCF time: 0 days 0 hours 0 min 5 sec 

Total time                  ....       5.501 sec
Sum of individual times     ....       5.423 sec  ( 98.6%)

SCF preparation             ....       0.248 sec  (  4.5%)
Fock matrix formation       ....       5.106 sec  ( 92.8%)
  Startup                   ....       0.006 sec  (  0.1% of F)
  Split-RI-J                ....       0.992 sec  ( 19.4% of F)
  XC integration            ....       2.174 sec  ( 42.6% of F)
    Basis function eval.    ....       0.652 sec  ( 30.0% of XC)
    Density eval.           ....       0.610 sec  ( 28.1% of XC)
    XC-Functional eval.     ....       0.343 sec  ( 15.8% of XC)
    XC-Potential eval.      ....       0.351 sec  ( 16.1% of XC)
  CPCM terms                ....       1.901 sec  ( 37.2% of F)
Diagonalization             ....       0.000 sec  (  0.0%)
Density matrix formation    ....       0.011 sec  (  0.2%)
Total Energy calculation    ....       0.004 sec  (  0.1%)
Population analysis         ....       0.029 sec  (  0.5%)
Orbital Transformation      ....       0.004 sec  (  0.1%)
Orbital Orthonormalization  ....       0.000 sec  (  0.0%)
DIIS solution               ....       0.003 sec  (  0.1%)
SOSCF solution              ....       0.018 sec  (  0.3%)
Finished LeanSCF after   5.6 sec

Maximum memory used throughout the entire LEANSCF-calculation: 69.4 MB

-------------------------   --------------------
FINAL SINGLE POINT ENERGY      -648.750519745908
-------------------------   --------------------

                                *** OPTIMIZATION RUN DONE ***


------------------------------------------------------------------------------
                              ORCA PROPERTY CALCULATIONS
------------------------------------------------------------------------------

GBWName                                 ... Ibuprofen\Ibuprofen_TPSS_STO-3G\Ibuprofen_TPSS_STO-3G.orcainp.gbw
Number of atoms                         ...     33
Number of basis functions               ...     93
Max core memory                         ...   1024 MB

Electric properties:
Dipole moment                           ... YES
Quadrupole moment                       ...  NO
Static polarizability (Dipole/Dipole)   ...  NO
Static polarizability (Dipole/Quad.)    ...  NO
Static polarizability (Quad./Quad.)     ...  NO
Static polarizability (Velocity)        ...  NO

Atomic electric properties:
Dipole moment                           ...  NO
Quadrupole moment                       ...  NO
Static polarizability                   ...  NO

Choice of electric origin               ... Center of mass
Position of electric origin             ...    11.714285    -0.678746    -1.452441

General magnetic properties:
Magnetizability                         ...  NO

EPR properties:
g-Tensor (aka g-matrix)                 ...  NO
Zero-Field splitting spin-orbit         ...  NO
Zero-field splitting spin-spin          ...  NO
Hyperfine couplings                     ...  NO (   0 nuclei)
Quadrupole couplings                    ...  NO (   0 nuclei)
Contact density                         ...  NO (   0 nuclei)

NMR properties:
Chemical shifts                         ...  NO (   0 nuclei)
Spin-rotation constants                 ...  NO (   0 nuclei)
Spin-spin couplings                     ...  NO (   0 nuclei,    0 pairs)

Choice of magnetic origin               ... GIAO
Position of magnetic origin             ...     0.000000     0.000000     0.000000

Properties with geometric perturbations:
SCF Hessian                             ...  NO
IR spectrum                             ...  NO
VCD spectrum                            ...  NO
X-ray spectroscopy properties:
SCF XES/XAS/RIXS spectra                ...  NO


-------------
DIPOLE MOMENT
-------------

Method             : SCF
Type of density    : Electron Density
Multiplicity       :   1
Irrep              :   0
Energy             :  -648.7505197459076953 Eh
Relativity type    : 
Basis              : AO
                                X                 Y                 Z
Electronic contribution:     20.227445660       2.295114871      -0.093305726
Nuclear contribution   :    -21.580521849      -2.888480765      -0.374766514
                        -----------------------------------------
Total Dipole Moment    :     -1.353076189      -0.593365894      -0.468072241
                        -----------------------------------------
Magnitude (a.u.)       :      1.549835437
Magnitude (Debye)      :      3.939368613



--------------------
Rotational spectrum 
--------------------
 
Rotational constants in cm-1:             0.046367             0.008286             0.007777 
Rotational constants in MHz :          1390.047537           248.419351           233.138547 

Dipole components along the rotational axes: 
x,y,z [a.u.] :     1.369596    -0.699130     0.193428 
x,y,z [Debye]:     3.481236    -1.777046     0.491656 

 

Dipole moment calculation done in   0.0 sec 

Maximum memory used throughout the entire PROP-calculation: 8.7 MB

--------------------------------
SUGGESTED CITATIONS FOR THIS RUN
--------------------------------

Below you find a list of papers that are relevant to this ORCA run
We neither can nor want to force you to cite these papers, but we appreciate if you do
You receive ORCA, which is the product of decades of hard work by many enthusiastic individuals, for free
The only thing we kindly ask in return is that you cite our papers,
We deeply appreciate it, if you show your appreciation for ORCA by not just citing the generic ORCA reference.

Please note that relegating all ORCA citations to the supporting information does *not* help us.
SI sections are not indexed - citations you put there will not count into any citation statistics
But we need these citations in order to attract the funding resources that allow us to do what we are doing

Therefore, if you are a happy ORCA user, please consider citing a few of the papers listed below in the main body of your paper

In addition to the list printed below, the program has created the file Ibuprofen\Ibuprofen_TPSS_STO-3G\Ibuprofen_TPSS_STO-3G.orcainp.bibtex that contains the list in bibtex format
You can import this file easily into all common literature databanks and citation aid programs


List of essential papers. We consider these as the minimum necessary citations

  1. Neese,F.
     Software update: the ORCA program system, version 5.0
     WIRES Comput. Molec. Sci., 2022 12(1)e1606
     doi.org/10.1002/wcms.1606

List of papers to cite with high priority. The work reported in these papers was absolutely
necessary for this run to complete.
Our perspective: the developers of density functionals and basis sets usually get cited in chemistry papers
Good! But without the algorithms to do something with them, the functionals or basis sets would not do anything.
Hence, in our opinion, the algorithm design and method developments papers are equally worthy of getting cited

  1. Neese,F.
     An improvement of the resolution of the identity approximation for the formation of the Coulomb matrix
     J. Comp. Chem., 2003 24(14)1740-1747
     doi.org/10.1002/jcc.10318
  2. Garcia-Rates,M.; Neese,F.
     Effect of the Solute Cavity on the Solvation Energy and its Derivatives within the Framework of the Gaussian Charge Scheme
     J. Comput. Chem., 2020 41 922-939
     doi.org/10.1002/jcc.26139
  3. Neese,F.
     The SHARK Integral Generation and Digestion System
     J. Comp. Chem., 2022  1-16
     doi.org/10.1002/jcc.26942

List of suggested additional citations. These are papers that are important in the 'surrounding' of 
of this run, or papers that preceded the highly important papers. If you like your results we are grateful for a citation.

  1. Neese,F.
     The ORCA program system
     WIRES Comput. Molec. Sci., 2012 2(1)73-78
     doi.org/10.1002/wcms.81
  2. Neese,F.
     Software update: the ORCA program system, version 4.0
     WIRES Comput. Molec. Sci., 2018 8(1)1-6
     doi.org/10.1002/wcms.1327
  3. Neese,F.; Wennmohs,F.; Becker,U.; Riplinger,C.
     The ORCA quantum chemistry program package
     J. Chem. Phys., 2020 152 Art. No. L224108
     doi.org/10.1063/5.0004608

List of optional additional citations

  1. Neese,F.
     Approximate second-order SCF convergence for spin unrestricted wavefunctions
     Chem. Phys. Lett., 2000 325(1-3)93-98
     doi.org/10.1016/s0009-2614(00)00662-x

Timings for individual modules:

Sum of individual times          ...      217.958 sec (=   3.633 min)
Startup calculation              ...       12.148 sec (=   0.202 min)   5.6 %
SCF iterations                   ...      133.184 sec (=   2.220 min)  61.1 %
Property calculations            ...        0.069 sec (=   0.001 min)   0.0 %
SCF Gradient evaluation          ...       72.404 sec (=   1.207 min)  33.2 %
Geometry relaxation              ...        0.153 sec (=   0.003 min)   0.1 %
                             ****ORCA TERMINATED NORMALLY****
TOTAL RUN TIME: 0 days 0 hours 3 minutes 39 seconds 188 msec
