
                                 *****************
                                 * O   R   C   A *
                                 *****************

                                            #,                                       
                                            ###                                      
                                            ####                                     
                                            #####                                    
                                            ######                                   
                                           ########,                                 
                                     ,,################,,,,,                         
                               ,,#################################,,                 
                          ,,##########################################,,             
                       ,#########################################, ''#####,          
                    ,#############################################,,   '####,        
                  ,##################################################,,,,####,       
                ,###########''''           ''''###############################       
              ,#####''   ,,,,##########,,,,          '''####'''          '####       
            ,##' ,,,,###########################,,,                        '##       
           ' ,,###''''                  '''############,,,                           
         ,,##''                                '''############,,,,        ,,,,,,###''
      ,#''                                            '''#######################'''  
     '                                                          ''''####''''         
             ,#######,   #######,   ,#######,      ##                                
            ,#'     '#,  ##    ##  ,#'     '#,    #''#        ,####,   ,####,        
            ##       ##  ##   ,#'  ##            #'  '#       #'       #'  '#        
            ##       ##  #######   ##           ,######,      #####,   #    #        
            '#,     ,#'  ##    ##  '#,     ,#' ,#      #,     #,   #   #,  ,#        
             '#######'   ##     ##  '#######'  #'      '#     '####' # '####'        



                #########################################################
                #                        -***-                          #
                #          Department of theory and spectroscopy        #
                #                                                       #
                #                      Frank Neese                      #
                #                                                       #
                #     Directorship, Architecture, Infrastructure        #
                #                    SHARK, DRIVERS                     #
                #        Core code/Algorithms in most modules           #
                #                                                       #
                #        Max Planck Institute fuer Kohlenforschung      #
                #                Kaiser Wilhelm Platz 1                 #
                #                 D-45470 Muelheim/Ruhr                 #
                #                      Germany                          #
                #                                                       #
                #                  All rights reserved                  #
                #                        -***-                          #
                #########################################################


                         Program Version 6.0.0  -   RELEASE   -


 With contributions from (in alphabetic order):
   Daniel Aravena         : Magnetic Suceptibility
   Michael Atanasov       : Ab Initio Ligand Field Theory (pilot matlab implementation)
   Alexander A. Auer      : GIAO ZORA, VPT2 properties, NMR spectrum
   Ute Becker             : All parallelization in ORCA, NUMFREQ, NUMCALC
   Giovanni Bistoni       : ED, misc. LED, open-shell LED, HFLD
   Martin Brehm           : Molecular dynamics
   Dmytro Bykov           : pre 5.0 version of the SCF Hessian
   Marcos Casanova-Páez   : Triplet and SCS-CIS(D). UHF-(DLPNO)-IP/EA/STEOM-CCSD. UHF-CVS-IP/STEOM-CCSD
   Vijay G. Chilkuri      : MRCI spin determinant printing, contributions to CSF-ICE
   Pauline Colinet        : FMM embedding
   Dipayan Datta          : RHF DLPNO-CCSD density
   Achintya Kumar Dutta   : EOM-CC, STEOM-CC
   Nicolas Foglia         : Exact transition moments, OPA infrastructure, MCD improvements
   Dmitry Ganyushin       : Spin-Orbit,Spin-Spin,Magnetic field MRCI
   Miquel Garcia          : C-PCM and meta-GGA Hessian, CCSD/C-PCM, Gaussian charge scheme
   Tiago L. C. Gouveia    : GS-ROHF, GS-ROCIS
   Yang Guo               : DLPNO-NEVPT2, F12-NEVPT2, CIM, IAO-localization
   Andreas Hansen         : Spin unrestricted coupled pair/coupled cluster methods
   Ingolf Harden          : AUTO-CI MPn and infrastructure 
   Benjamin Helmich-Paris : MC-RPA, TRAH-(SCF,CASSCF), AVAS, COSX integrals, SCF dyn. polar.
   Lee Huntington         : MR-EOM, pCC
   Robert Izsak           : Overlap fitted RIJCOSX, COSX-SCS-MP3, EOM
   Riya Kayal             : Wick's Theorem for AUTO-CI, AUTO-CI UHF-CCSDT
   Emily Kempfer          : AUTO-CI, RHF CISDT and CCSDT
   Christian Kollmar      : KDIIS, OOCD, Brueckner-CCSD(T), CCSD density, CASPT2, CASPT2-K, improved NEVPT2
   Axel Koslowski         : Symmetry handling
   Simone Kossmann        : Meta GGA functionals, TD-DFT gradient, OOMP2, (MP2 Hessian; deprecated post 5.0)
   Lucas Lang             : DCDCAS
   Marvin Lechner         : AUTO-CI (C++ implementation), FIC-MRCC
   Spencer Leger          : CASSCF response
   Dagmar Lenk            : GEPOL surface, SMD, ORCA-2-JSON
   Dimitrios Liakos       : Extrapolation schemes; Compound Job, initial MDCI parallelization
   Dimitrios Manganas     : Further ROCIS development; embedding schemes. LFT, Crystal Embedding
   Dimitrios Pantazis     : SARC Basis sets
   Anastasios Papadopoulos: AUTO-CI, single reference methods and gradients
   Taras Petrenko         : pre 6.0 DFT Hessian and TD-DFT gradient, (ASA, deprecated), ECA, 1-Electron XAS/XES, NRVS
   Peter Pinski           : DLPNO-MP2, DLPNO-MP2 Gradient
   Christoph Reimann      : Effective Core Potentials
   Marius Retegan         : Local ZFS, SOC
   Christoph Riplinger    : Optimizer, TS searches, QM/MM, DLPNO-CCSD(T), (RO)-DLPNO pert. Triples
   Michael Roemelt        : Original ROCIS implementation
   Masaaki Saitow         : Open-shell DLPNO-CCSD energy and density
   Barbara Sandhoefer     : DKH picture change effects
   Kantharuban Sivalingam : CASSCF convergence/infrastructure, NEVPT2 and variants, FIC-MRCI
   Bernardo de Souza      : ESD, SOC TD-DFT
   Georgi Stoychev        : AutoAux, RI-MP2 NMR, DLPNO-MP2 response, X2C
   Van Anh Tran           : RI-MP2 g-tensors
   Willem Van den Heuvel  : Paramagnetic NMR
   Zikuan Wang            : NOTCH, Electric field optimization 
   Frank Wennmohs         : Technical directorship and infrastructure
   Hang Xu                : AUTO-CI-Response properties 


 We gratefully acknowledge several colleagues who have allowed us to
 interface, adapt or use parts of their codes:
   Stefan Grimme, W. Hujo, H. Kruse, P. Pracht,  : VdW corrections, initial TS optimization,
                  C. Bannwarth, S. Ehlert,         DFT functionals, gCP, sTDA/sTD-DF
                  L. Wittmann, M. Mueller
   Ed Valeev, F. Pavosevic, A. Kumar             : LibInt (2-el integral package), F12 methods
   Garnet Chan, S. Sharma, J. Yang, R. Olivares  : DMRG
   Ulf Ekstrom                                   : XCFun DFT Library
   Mihaly Kallay                                 : mrcc  (arbitrary order and MRCC methods)
   Frank Weinhold                                : gennbo (NPA and NBO analysis)
   Simon Mueller                                 : openCOSMO-RS
   Christopher J. Cramer and Donald G. Truhlar   : smd solvation model
   Lars Goerigk                                  : TD-DFT with DH, B97 family of functionals
   V. Asgeirsson, H. Jonsson                     : NEB implementation
   FAccTs GmbH                                   : IRC, NEB, NEB-TS, DLPNO-Multilevel, CI-OPT
                                                   MM, QMMM, 2- and 3-layer-ONIOM, Crystal-QMMM,
                                                   LR-CPCM, SF, NACMEs, symmetry and pop. for TD-DFT,
                                                   nearIR, NL-DFT gradient (VV10), updates on ESD,
                                                   ML-optimized integration grids, MBIS, APM,
                                                   GOAT, DOCKER, SOLVATOR, interface openCOSMO-RS
   S Lehtola, MJT Oliveira, MAL Marques          : LibXC Library
   Liviu Ungur et al                             : ANISO software


 Your calculation uses the libint2 library for the computation of 2-el integrals
 For citations please refer to: http://libint.valeyev.net

 Your ORCA version has been built with support for libXC version: 6.2.2
 For citations please refer to: https://libxc.gitlab.io

 This ORCA versions uses:
   CBLAS   interface :  Fast vector & matrix operations
   LAPACKE interface :  Fast linear algebra routines
   Shared memory     :  Shared parallel matrices


Warning: RI is on but no J-basis has been assigned. Assigning Def2/J (nothing to worry about!)
================================================================================

----- Orbital basis set information -----
Your calculation utilizes the basis: STO-3G
   H-Ne       : W. J. Hehre, R. F. Stewart and J. A. Pople, J. Chem. Phys. 2657 (1969).
   Na-Ar      : W. J. Hehre, R. Ditchfield, R. F. Stewart and J. A. Pople, J. Chem. Phys. 2769 (1970).
   K,Ca,Ga-Kr : W. J. Pietro, B. A. Levy, W. J. Hehre and R. F. Stewart, J. Am. Chem. Soc. 19, 2225 (1980).
   Sc-Zn,Y-Cd : W. J. Pietro and W. J. Hehre, J. Comp. Chem. 4, 241 (1983).

----- AuxJ basis set information -----
Your calculation utilizes the auxiliary basis: def2/J
   F. Weigend, Phys. Chem. Chem. Phys. 8, 1057 (2006).

================================================================================
                                        WARNINGS
                       Please study these warnings very carefully!
================================================================================


WARNING: Geometry Optimization
  ===> : Switching off AutoStart
         For restart on a previous wavefunction, please use MOREAD

================================================================================
                                       INPUT FILE
================================================================================
NAME = Dexketoprofen\Dexketoprofen_TPSS_STO-3G\Dexketoprofen_TPSS_STO-3G.orcainp
|  1> # ORCA input file
|  2> # 
|  3> !TPSS STO-3G Opt CPCM(WATER)
|  4> * xyz 0 1
|  5>    H        2.19682        -0.91154         0.64044
|  6>    C        2.08274        -0.07230        -0.06151
|  7>    C        0.61781         0.37039        -0.01313
|  8>    C        2.95733         1.04661         0.51400
|  9>    O        4.28094         0.77780         0.52831
| 10>    O        2.52215         2.08691         0.98966
| 11>    C        2.46394        -0.56230        -1.45986
| 12>    C        2.32706        -1.92842        -1.78584
| 13>    C        2.67594        -2.40638        -3.06924
| 14>    C        3.08558        -1.51093        -4.05073
| 15>    C        3.20379        -0.15525        -3.74761
| 16>    C        2.90509         0.31130        -2.46255
| 17>    C        2.63455        -3.85377        -3.42227
| 18>    O        2.31712        -4.18658        -4.56116
| 19>    C        3.03282        -4.89946        -2.43983
| 20>    C        3.93140        -4.62386        -1.40002
| 21>    C        4.30356        -5.63104        -0.51010
| 22>    C        3.79973        -6.92143        -0.66808
| 23>    C        2.92349        -7.20672        -1.71455
| 24>    C        2.54088        -6.19946        -2.60247
| 25>    H        0.34865         0.71015         0.99629
| 26>    H       -0.06373        -0.44391        -0.27769
| 27>    H        0.43042         1.20885        -0.69604
| 28>    H        4.52517        -0.07595         0.12336
| 29>    H        1.94296        -2.62253        -1.04434
| 30>    H        3.32225        -1.86705        -5.05606
| 31>    H        3.53216         0.53830        -4.52112
| 32>    H        3.01182         1.37929        -2.26715
| 33>    H        4.36991        -3.63997        -1.27773
| 34>    H        4.99900        -5.41307         0.29648
| 35>    H        4.10396        -7.70787         0.01569
| 36>    H        2.54331        -8.21744        -1.84315
| 37>    H        1.86720        -6.43272        -3.42364
| 38> *
| 39> 
| 40>                          ****END OF INPUT****
================================================================================

                       *****************************
                       * Geometry Optimization Run *
                       *****************************

Geometry optimization settings:
Update method            Update   .... BFGS
Choice of coordinates    CoordSys .... (2022) Redundant Internals
Initial Hessian          InHess   .... Almloef's Model
Max. no of cycles        MaxIter  .... 99

Convergence Tolerances:
Energy Change            TolE     ....  5.0000e-06 Eh
Max. Gradient            TolMAXG  ....  3.0000e-04 Eh/bohr
RMS Gradient             TolRMSG  ....  1.0000e-04 Eh/bohr
Max. Displacement        TolMAXD  ....  4.0000e-03 bohr
RMS Displacement         TolRMSD  ....  2.0000e-03 bohr
Strict Convergence                .... False

------------------------------------------------------------------------------
                        ORCA OPTIMIZATION COORDINATE SETUP
------------------------------------------------------------------------------

The optimization will be done in redundant internal coordinates (2022)
Making redundant internal coordinates   ...  (2022 redundants) done
Evaluating the initial hessian          ...  (Almloef) done
Evaluating the coordinates              ...  done
Calculating the B-matrix                .... done
Calculating the G-matrix                .... done
Diagonalizing the G-matrix              .... done
Small eigenvalue found = 3.135e-03
Small eigenvalue found = 1.261e-02
Small eigenvalue found = 1.612e-02
Small eigenvalue found = 2.815e-02
The first mode is                       ....   70
The number of degrees of freedom        ....   93

    -----------------------------------------------------------------
                    Redundant Internal Coordinates


    -----------------------------------------------------------------
         Definition                    Initial Value    Approx d2E/dq
    -----------------------------------------------------------------
      1. B(C   1,H   0)                  1.1000         0.347070   
      2. B(C   2,C   1)                  1.5311         0.372038   
      3. B(C   3,C   1)                  1.5323         0.370371   
      4. B(O   4,C   3)                  1.3507         0.646497   
      5. B(O   5,C   3)                  1.2239         1.030208   
      6. B(C   6,C   1)                  1.5300         0.373621   
      7. B(C   7,C   6)                  1.4111         0.578136   
      8. B(C   8,C   7)                  1.4133         0.573645   
      9. B(C   9,C   8)                  1.3903         0.624088   
     10. B(C  10,C   9)                  1.3942         0.615287   
     11. B(C  11,C  10)                  1.3994         0.603629   
     12. B(C  11,C   6)                  1.4011         0.599756   
     13. B(C  12,C   8)                  1.4904         0.432079   
     14. B(O  13,C  12)                  1.2282         1.013770   
     15. B(C  14,C  12)                  1.4891         0.434218   
     16. B(C  15,C  14)                  1.4016         0.598634   
     17. B(C  16,C  15)                  1.3946         0.614357   
     18. B(C  17,C  16)                  1.3942         0.615137   
     19. B(C  18,C  17)                  1.3944         0.614831   
     20. B(C  19,C  18)                  1.3962         0.610734   
     21. B(C  19,C  14)                  1.3994         0.603481   
     22. B(H  20,C   2)                  1.0986         0.348965   
     23. B(H  21,C   2)                  1.0943         0.354408   
     24. B(H  22,C   2)                  1.0975         0.350320   
     25. B(H  23,O   4)                  0.9760         0.490325   
     26. B(H  24,C   7)                  1.0859         0.365587   
     27. B(H  25,C   9)                  1.0925         0.356828   
     28. B(H  26,C  10)                  1.0896         0.360673   
     29. B(H  27,C  11)                  1.0910         0.358844   
     30. B(H  28,C  15)                  1.0841         0.367982   
     31. B(H  29,C  16)                  1.0871         0.363998   
     32. B(H  30,C  17)                  1.0856         0.365932   
     33. B(H  31,C  18)                  1.0875         0.363439   
     34. B(H  32,C  19)                  1.0875         0.363472   
     35. A(C   2,C   1,C   3)          108.8500         0.362562   
     36. A(C   3,C   1,C   6)          115.7801         0.362825   
     37. A(H   0,C   1,C   2)          107.4361         0.322146   
     38. A(H   0,C   1,C   3)          104.9651         0.321910   
     39. A(H   0,C   1,C   6)          108.2428         0.322371   
     40. A(C   2,C   1,C   6)          111.0918         0.363103   
     41. A(C   1,C   2,H  21)          111.9060         0.323253   
     42. A(H  20,C   2,H  22)          107.0761         0.288164   
     43. A(C   1,C   2,H  20)          110.6634         0.322434   
     44. A(H  20,C   2,H  21)          107.4386         0.288688   
     45. A(H  21,C   2,H  22)          108.1623         0.288863   
     46. A(C   1,C   2,H  22)          111.3822         0.322639   
     47. A(O   4,C   3,O   5)          120.8966         0.473374   
     48. A(C   1,C   3,O   5)          124.3116         0.430653   
     49. A(C   1,C   3,O   4)          114.7060         0.396456   
     50. A(C   3,O   4,H  23)          114.5142         0.369047   
     51. A(C   7,C   6,C  11)          117.9587         0.426106   
     52. A(C   1,C   6,C  11)          122.1966         0.394389   
     53. A(C   1,C   6,C   7)          119.8030         0.391862   
     54. A(C   8,C   7,H  24)          119.4229         0.349197   
     55. A(C   6,C   7,C   8)          120.8804         0.422727   
     56. A(C   6,C   7,H  24)          119.6956         0.349656   
     57. A(C   7,C   8,C   9)          119.7358         0.428555   
     58. A(C   9,C   8,C  12)          117.8038         0.407458   
     59. A(C   7,C   8,C  12)          122.4586         0.401440   
     60. A(C   8,C   9,C  10)          119.8530         0.433983   
     61. A(C  10,C   9,H  25)          119.9126         0.351910   
     62. A(C   8,C   9,H  25)          120.2328         0.352756   
     63. A(C   9,C  10,H  26)          119.3514         0.352548   
     64. A(C  11,C  10,H  26)          120.2674         0.351410   
     65. A(C   9,C  10,C  11)          120.3812         0.431391   
     66. A(C  10,C  11,H  27)          118.0327         0.351108   
     67. A(C   6,C  11,H  27)          120.8638         0.350726   
     68. A(C   6,C  11,C  10)          121.0977         0.429415   
     69. A(O  13,C  12,C  14)          119.3810         0.441888   
     70. A(C   8,C  12,C  14)          121.2169         0.382356   
     71. A(C   8,C  12,O  13)          119.3378         0.441494   
     72. A(C  15,C  14,C  19)          119.6188         0.429252   
     73. A(C  12,C  14,C  19)          118.7933         0.405400   
     74. A(C  12,C  14,C  15)          121.5231         0.404823   
     75. A(C  14,C  15,C  16)          120.1635         0.430630   
     76. A(C  16,C  15,H  28)          118.3933         0.353657   
     77. A(C  14,C  15,H  28)          121.4294         0.352109   
     78. A(C  15,C  16,C  17)          119.9784         0.432739   
     79. A(C  17,C  16,H  29)          120.0548         0.353082   
     80. A(C  15,C  16,H  29)          119.9592         0.353006   
     81. A(C  16,C  17,C  18)          120.0982         0.432799   
     82. A(C  18,C  17,H  30)          120.0382         0.353369   
     83. A(C  16,C  17,H  30)          119.8558         0.353399   
     84. A(C  17,C  18,C  19)          120.1247         0.432241   
     85. A(C  19,C  18,H  31)          119.9668         0.352561   
     86. A(C  17,C  18,H  31)          119.9071         0.352960   
     87. A(C  14,C  19,C  18)          119.9950         0.430796   
     88. A(C  18,C  19,H  32)          119.6859         0.352566   
     89. A(C  14,C  19,H  32)          120.3170         0.351855   
     90. D(H  21,C   2,C   1,C   6)     59.5759         0.011057   
     91. D(H  21,C   2,C   1,H   0)    -58.6416         0.011057   
     92. D(H  20,C   2,C   1,H   0)     61.1514         0.011057   
     93. D(H  21,C   2,C   1,C   3)   -171.7974         0.011057   
     94. D(H  20,C   2,C   1,C   6)    179.3689         0.011057   
     95. D(H  20,C   2,C   1,C   3)    -52.0044         0.011057   
     96. D(O   4,C   3,C   1,C   2)    179.9699         0.010271   
     97. D(O   4,C   3,C   1,C   6)    -54.0729         0.010271   
     98. D(O   4,C   3,C   1,H   0)     65.1988         0.010271   
     99. D(O   5,C   3,C   1,C   2)      3.3220         0.010271   
    100. D(O   5,C   3,C   1,H   0)   -111.4491         0.010271   
    101. D(H  23,O   4,C   3,C   1)      3.3294         0.030862   
    102. D(H  23,O   4,C   3,O   5)   -179.8972         0.030862   
    103. D(C   7,C   6,C   1,H   0)     26.6289         0.010439   
    104. D(C   7,C   6,C   1,C   2)    -91.0998         0.010439   
    105. D(C   7,C   6,C   1,C   3)    144.0901         0.010439   
    106. D(C  11,C   6,C   1,C   2)     86.5028         0.010439   
    107. D(C  11,C   6,C   1,H   0)   -155.7685         0.010439   
    108. D(H  24,C   7,C   6,C  11)   -177.1388         0.022957   
    109. D(C   8,C   7,C   6,C  11)      2.4781         0.022957   
    110. D(H  24,C   7,C   6,C   1)      0.5645         0.022957   
    111. D(C   8,C   7,C   6,C   1)   -179.8186         0.022957   
    112. D(C  12,C   8,C   7,H  24)     -4.6825         0.022586   
    113. D(C  12,C   8,C   7,C   6)    175.6996         0.022586   
    114. D(C   9,C   8,C   7,H  24)    175.8230         0.022586   
    115. D(C   9,C   8,C   7,C   6)     -3.7949         0.022586   
    116. D(H  25,C   9,C   8,C  12)      2.7105         0.026973   
    117. D(H  25,C   9,C   8,C   7)   -177.7717         0.026973   
    118. D(C  10,C   9,C   8,C  12)   -176.8273         0.026973   
    119. D(C  10,C   9,C   8,C   7)      2.6905         0.026973   
    120. D(C  11,C  10,C   9,C   8)     -0.3660         0.026173   
    121. D(H  26,C  10,C   9,H  25)      0.0378         0.026173   
    122. D(H  26,C  10,C   9,C   8)    179.5771         0.026173   
    123. D(C  11,C  10,C   9,H  25)   -179.9052         0.026173   
    124. D(H  27,C  11,C  10,H  26)     -0.0066         0.025135   
    125. D(H  27,C  11,C  10,C   9)    179.9359         0.025135   
    126. D(C   6,C  11,C  10,H  26)    179.1205         0.025135   
    127. D(C   6,C  11,C  10,C   9)     -0.9369         0.025135   
    128. D(H  27,C  11,C   6,C   7)    178.9778         0.024796   
    129. D(C  10,C  11,C   6,C   7)     -0.1246         0.024796   
    130. D(C  10,C  11,C   6,C   1)   -177.7695         0.024796   
    131. D(H  27,C  11,C   6,C   1)      1.3330         0.024796   
    132. D(C  14,C  12,C   8,C   9)    142.1724         0.012752   
    133. D(C  14,C  12,C   8,C   7)    -37.3313         0.012752   
    134. D(O  13,C  12,C   8,C   9)    -34.8944         0.012752   
    135. D(O  13,C  12,C   8,C   7)    145.6018         0.012752   
    136. D(C  19,C  14,C  12,O  13)    -25.9545         0.012874   
    137. D(C  19,C  14,C  12,C   8)    156.9799         0.012874   
    138. D(C  15,C  14,C  12,O  13)    151.1069         0.012874   
    139. D(C  15,C  14,C  12,C   8)    -25.9587         0.012874   
    140. D(H  28,C  15,C  14,C  19)    176.8261         0.024699   
    141. D(H  28,C  15,C  14,C  12)     -0.2115         0.024699   
    142. D(C  16,C  15,C  14,C  19)     -1.7982         0.024699   
    143. D(C  16,C  15,C  14,C  12)   -178.8359         0.024699   
    144. D(H  29,C  16,C  15,H  28)      1.4704         0.026089   
    145. D(H  29,C  16,C  15,C  14)   -179.8639         0.026089   
    146. D(C  17,C  16,C  15,H  28)   -177.5290         0.026089   
    147. D(C  17,C  16,C  15,C  14)      1.1367         0.026089   
    148. D(H  30,C  17,C  16,H  29)     -0.0390         0.026159   
    149. D(H  30,C  17,C  16,C  15)    178.9594         0.026159   
    150. D(C  18,C  17,C  16,H  29)   -179.0246         0.026159   
    151. D(C  18,C  17,C  16,C  15)     -0.0262         0.026159   
    152. D(C  19,C  18,C  17,C  16)     -0.4151         0.026132   
    153. D(H  31,C  18,C  17,H  30)      0.1612         0.026132   
    154. D(H  31,C  18,C  17,C  16)    179.1449         0.026132   
    155. D(C  19,C  18,C  17,H  30)   -179.3989         0.026132   
    156. D(H  32,C  19,C  18,H  31)     -0.3425         0.025764   
    157. D(H  32,C  19,C  18,C  17)    179.2173         0.025764   
    158. D(C  14,C  19,C  18,H  31)   -179.8147         0.025764   
    159. D(C  14,C  19,C  18,C  17)     -0.2549         0.025764   
    160. D(H  32,C  19,C  14,C  15)   -178.1135         0.025122   
    161. D(H  32,C  19,C  14,C  12)     -0.9949         0.025122   
    162. D(C  18,C  19,C  14,C  15)      1.3553         0.025122   
    163. D(C  18,C  19,C  14,C  12)    178.4739         0.025122   
    -----------------------------------------------------------------

Number of atoms                         .... 33
Number of degrees of freedom            .... 163


         *************************************************************
         *                GEOMETRY OPTIMIZATION CYCLE   1            *
         *************************************************************
---------------------------------
CARTESIAN COORDINATES (ANGSTROEM)
---------------------------------
  H      2.196820   -0.911540    0.640440
  C      2.082740   -0.072300   -0.061510
  C      0.617810    0.370390   -0.013130
  C      2.957330    1.046610    0.514000
  O      4.280940    0.777800    0.528310
  O      2.522150    2.086910    0.989660
  C      2.463940   -0.562300   -1.459860
  C      2.327060   -1.928420   -1.785840
  C      2.675940   -2.406380   -3.069240
  C      3.085580   -1.510930   -4.050730
  C      3.203790   -0.155250   -3.747610
  C      2.905090    0.311300   -2.462550
  C      2.634550   -3.853770   -3.422270
  O      2.317120   -4.186580   -4.561160
  C      3.032820   -4.899460   -2.439830
  C      3.931400   -4.623860   -1.400020
  C      4.303560   -5.631040   -0.510100
  C      3.799730   -6.921430   -0.668080
  C      2.923490   -7.206720   -1.714550
  C      2.540880   -6.199460   -2.602470
  H      0.348650    0.710150    0.996290
  H     -0.063730   -0.443910   -0.277690
  H      0.430420    1.208850   -0.696040
  H      4.525170   -0.075950    0.123360
  H      1.942960   -2.622530   -1.044340
  H      3.322250   -1.867050   -5.056060
  H      3.532160    0.538300   -4.521120
  H      3.011820    1.379290   -2.267150
  H      4.369910   -3.639970   -1.277730
  H      4.999000   -5.413070    0.296480
  H      4.103960   -7.707870    0.015690
  H      2.543310   -8.217440   -1.843150
  H      1.867200   -6.432720   -3.423640

----------------------------
CARTESIAN COORDINATES (A.U.)
----------------------------
  NO LB      ZA    FRAG     MASS         X           Y           Z
   0 H     1.0000    0     1.008    4.151388   -1.722561    1.210256
   1 C     6.0000    0    12.011    3.935808   -0.136627   -0.116237
   2 C     6.0000    0    12.011    1.167492    0.699936   -0.024812
   3 C     6.0000    0    12.011    5.588544    1.977806    0.971319
   4 O     8.0000    0    15.999    8.089804    1.469829    0.998361
   5 O     8.0000    0    15.999    4.766173    3.943688    1.870186
   6 C     6.0000    0    12.011    4.656172   -1.062593   -2.758736
   7 C     6.0000    0    12.011    4.397506   -3.644186   -3.374749
   8 C     6.0000    0    12.011    5.056794   -4.547399   -5.800023
   9 C     6.0000    0    12.011    5.830901   -2.855244   -7.654770
  10 C     6.0000    0    12.011    6.054286   -0.293380   -7.081957
  11 C     6.0000    0    12.011    5.489824    0.588272   -4.653545
  12 C     6.0000    0    12.011    4.978578   -7.282570   -6.467153
  13 O     8.0000    0    15.999    4.378722   -7.911490   -8.619343
  14 C     6.0000    0    12.011    5.731199   -9.258638   -4.610611
  15 C     6.0000    0    12.011    7.429269   -8.737829   -2.645654
  16 C     6.0000    0    12.011    8.132550  -10.641123   -0.963949
  17 C     6.0000    0    12.011    7.180449  -13.079607   -1.262488
  18 C     6.0000    0    12.011    5.524595  -13.618727   -3.240030
  19 C     6.0000    0    12.011    4.801567  -11.715282   -4.917956
  20 H     1.0000    0     1.008    0.658853    1.341989    1.882715
  21 H     1.0000    0     1.008   -0.120432   -0.838868   -0.524758
  22 H     1.0000    0     1.008    0.813376    2.284395   -1.315325
  23 H     1.0000    0     1.008    8.551332   -0.143525    0.233117
  24 H     1.0000    0     1.008    3.671662   -4.955863   -1.973517
  25 H     1.0000    0     1.008    6.278143   -3.528213   -9.554569
  26 H     1.0000    0     1.008    6.674815    1.017240   -8.543679
  27 H     1.0000    0     1.008    5.691515    2.606480   -4.284293
  28 H     1.0000    0     1.008    8.257933   -6.878546   -2.414560
  29 H     1.0000    0     1.008    9.446741  -10.229220    0.560266
  30 H     1.0000    0     1.008    7.755360  -14.565763    0.029650
  31 H     1.0000    0     1.008    4.806159  -15.528711   -3.483049
  32 H     1.0000    0     1.008    3.528497  -12.156079   -6.469742

--------------------------------
INTERNAL COORDINATES (ANGSTROEM)
--------------------------------
 H      0   0   0     0.000000000000     0.00000000     0.00000000
 C      1   0   0     1.100032647925     0.00000000     0.00000000
 C      2   1   0     1.531122126220   107.43609156     0.00000000
 C      2   1   3     1.532344287783   104.96512040   115.75297780
 O      4   2   1     1.350706120627   114.70604480    65.19879141
 O      4   2   1     1.223870155695   124.31160293   248.55087537
 C      2   1   3     1.529966065800   108.24276798   239.95517453
 C      7   2   1     1.411128253987   119.80300502    26.62889159
 C      8   7   2     1.413251066159   120.88039706   180.18135158
 C      9   8   7     1.390308689536   119.73577991   356.20510088
 C     10   9   8     1.394174881749   119.85304095     2.69047383
 C     11  10   9     1.399381933605   120.38118030   359.63404766
 C      9   8   7     1.490396298003   122.45861853   175.69959887
 O     13   9   8     1.228248644656   119.33784514   145.60180200
 C     13   9   8     1.489051685671   121.21692114   322.66865420
 C     15  13   9     1.401644110500   121.52314414   334.04126947
 C     16  15  13     1.394586757574   120.16351965   181.16412167
 C     17  16  15     1.394241263699   119.97839134     1.13669734
 C     18  17  16     1.394376700393   120.09819136   359.97380508
 C     19  18  17     1.396196635901   120.12468132   359.58487698
 H      3   2   1     1.098550271767   110.66340032    61.15136141
 H      3   2   1     1.094336902055   111.90596387   301.35835559
 H      3   2   1     1.097495445002   111.38217076   180.14364358
 H      5   4   2     0.975972262874   114.51418183     3.32935275
 H      8   7   2     1.085883857556   119.69556953     0.56445905
 H     10   9   8     1.092484577557   120.23277559   182.22826436
 H     11  10   9     1.089566968800   119.35136251   179.57711042
 H     12  11  10     1.090951462257   118.03268325   179.93591391
 H     16  15  13     1.084105804938   121.42936952   359.78850876
 H     17  16  15     1.087069000064   119.95923000   180.13608655
 H     18  17  16     1.085626629832   119.85583791   178.95939507
 H     19  18  17     1.087487798001   119.90708708   179.14491371
 H     20  19  18     1.087462706901   119.68591544   179.21726704

---------------------------
INTERNAL COORDINATES (A.U.)
---------------------------
 H      0   0   0     0.000000000000     0.00000000     0.00000000
 C      1   0   0     2.078760442950     0.00000000     0.00000000
 C      2   1   0     2.893401496143   107.43609156     0.00000000
 C      2   1   3     2.895711046788   104.96512040   115.75297780
 O      4   2   1     2.552464655397   114.70604480    65.19879141
 O      4   2   1     2.312779417742   124.31160293   248.55087537
 C      2   1   3     2.891216858555   108.24276798   239.95517453
 C      7   2   1     2.666645939874   119.80300502    26.62889159
 C      8   7   2     2.670657473513   120.88039706   180.18135158
 C      9   8   7     2.627302664834   119.73577991   356.20510088
 C     10   9   8     2.634608709298   119.85304095     2.69047383
 C     11  10   9     2.644448611271   120.38118030   359.63404766
 C      9   8   7     2.816440834235   122.45861853   175.69959887
 O     13   9   8     2.321053562760   119.33784514   145.60180200
 C     13   9   8     2.813899885172   121.21692114   322.66865420
 C     15  13   9     2.648723506069   121.52314414   334.04126947
 C     16  15  13     2.635387041808   120.16351965   181.16412167
 C     17  16  15     2.634734153003   119.97839134     1.13669734
 C     18  17  16     2.634990091264   120.09819136   359.97380508
 C     19  18  17     2.638429270954   120.12468132   359.58487698
 H      3   2   1     2.075959157985   110.66340032    61.15136141
 H      3   2   1     2.067997043128   111.90596387   301.35835559
 H      3   2   1     2.073965824280   111.38217076   180.14364358
 H      5   4   2     1.844320291136   114.51418183     3.32935275
 H      8   7   2     2.052023104026   119.69556953     0.56445905
 H     10   9   8     2.064496657115   120.23277559   182.22826436
 H     11  10   9     2.058983175599   119.35136251   179.57711042
 H     12  11  10     2.061599489066   118.03268325   179.93591391
 H     16  15  13     2.048663071527   121.42936952   359.78850876
 H     17  16  15     2.054262698796   119.95923000   180.13608655
 H     18  17  16     2.051537014074   119.85583791   178.95939507
 H     19  18  17     2.055054112202   119.90708708   179.14491371
 H     20  19  18     2.055006696895   119.68591544   179.21726704

---------------------
BASIS SET INFORMATION
---------------------
There are 3 groups of distinct atoms

 Group   1 Type H   : 3s contracted to 1s pattern {3}
 Group   2 Type C   : 6s3p contracted to 2s1p pattern {33/3}
 Group   3 Type O   : 6s3p contracted to 2s1p pattern {33/3}

Atom   0H    basis set group =>   1
Atom   1C    basis set group =>   2
Atom   2C    basis set group =>   2
Atom   3C    basis set group =>   2
Atom   4O    basis set group =>   3
Atom   5O    basis set group =>   3
Atom   6C    basis set group =>   2
Atom   7C    basis set group =>   2
Atom   8C    basis set group =>   2
Atom   9C    basis set group =>   2
Atom  10C    basis set group =>   2
Atom  11C    basis set group =>   2
Atom  12C    basis set group =>   2
Atom  13O    basis set group =>   3
Atom  14C    basis set group =>   2
Atom  15C    basis set group =>   2
Atom  16C    basis set group =>   2
Atom  17C    basis set group =>   2
Atom  18C    basis set group =>   2
Atom  19C    basis set group =>   2
Atom  20H    basis set group =>   1
Atom  21H    basis set group =>   1
Atom  22H    basis set group =>   1
Atom  23H    basis set group =>   1
Atom  24H    basis set group =>   1
Atom  25H    basis set group =>   1
Atom  26H    basis set group =>   1
Atom  27H    basis set group =>   1
Atom  28H    basis set group =>   1
Atom  29H    basis set group =>   1
Atom  30H    basis set group =>   1
Atom  31H    basis set group =>   1
Atom  32H    basis set group =>   1
---------------------------------
AUXILIARY/J BASIS SET INFORMATION
---------------------------------
There are 3 groups of distinct atoms

 Group   1 Type H   : 5s2p1d contracted to 3s1p1d pattern {311/2/1}
 Group   2 Type C   : 12s5p4d2f1g contracted to 6s4p3d1f1g pattern {711111/2111/211/2/1}
 Group   3 Type O   : 12s5p4d2f1g contracted to 6s4p3d1f1g pattern {711111/2111/211/2/1}

Atom   0H    basis set group =>   1
Atom   1C    basis set group =>   2
Atom   2C    basis set group =>   2
Atom   3C    basis set group =>   2
Atom   4O    basis set group =>   3
Atom   5O    basis set group =>   3
Atom   6C    basis set group =>   2
Atom   7C    basis set group =>   2
Atom   8C    basis set group =>   2
Atom   9C    basis set group =>   2
Atom  10C    basis set group =>   2
Atom  11C    basis set group =>   2
Atom  12C    basis set group =>   2
Atom  13O    basis set group =>   3
Atom  14C    basis set group =>   2
Atom  15C    basis set group =>   2
Atom  16C    basis set group =>   2
Atom  17C    basis set group =>   2
Atom  18C    basis set group =>   2
Atom  19C    basis set group =>   2
Atom  20H    basis set group =>   1
Atom  21H    basis set group =>   1
Atom  22H    basis set group =>   1
Atom  23H    basis set group =>   1
Atom  24H    basis set group =>   1
Atom  25H    basis set group =>   1
Atom  26H    basis set group =>   1
Atom  27H    basis set group =>   1
Atom  28H    basis set group =>   1
Atom  29H    basis set group =>   1
Atom  30H    basis set group =>   1
Atom  31H    basis set group =>   1
Atom  32H    basis set group =>   1
------------------------------------------------------------------------------
                             ORCA STARTUP CALCULATIONS
                           -- RI-GTO INTEGRALS CHOSEN --
------------------------------------------------------------------------------
------------------------------------------------------------------------------
                   ___                                                        
                  /   \      - P O W E R E D   B Y -                         
                 /     \                                                     
                 |  |  |   _    _      __       _____    __    __             
                 |  |  |  | |  | |    /  \     |  _  \  |  |  /  |          
                  \  \/   | |  | |   /    \    | | | |  |  | /  /          
                 / \  \   | |__| |  /  /\  \   | |_| |  |  |/  /          
                |  |  |   |  __  | /  /__\  \  |    /   |      \           
                |  |  |   | |  | | |   __   |  |    \   |  |\   \          
                \     /   | |  | | |  |  |  |  | |\  \  |  | \   \       
                 \___/    |_|  |_| |__|  |__|  |_| \__\ |__|  \__/        
                                                                              
                      - O R C A' S   B I G   F R I E N D -                    
                                      &                                       
                       - I N T E G R A L  F E E D E R -                       
                                                                              
 v1 FN, 2020, v2 2021, v3 2022-2024                                           
------------------------------------------------------------------------------


----------------------
SHARK INTEGRAL PACKAGE
----------------------

Number of atoms                             ...     33
Number of basis functions                   ...    109
Number of shells                            ...     71
Maximum angular momentum                    ...      1
Integral batch strategy                     ... SHARK/LIBINT Hybrid
RI-J (if used) integral strategy            ... SPLIT-RIJ (Revised 2003 algorithm where possible)
Printlevel                                  ...      1
Contraction scheme used                     ... SEGMENTED contraction
Prescreening option                         ... SCHWARTZ
   Thresh                                   ... 2.500e-11
   Tcut                                     ... 2.500e-12
   Tpresel                                  ... 2.500e-12 
Coulomb Range Separation                    ... NOT USED
Exchange Range Separation                   ... NOT USED
Multipole approximations                    ... NOT USED
Finite Nucleus Model                        ... NOT USED
CABS basis                                  ... NOT available
Auxiliary Coulomb fitting basis             ... AVAILABLE
   # of basis functions in Aux-J            ...   1085
   # of shells in Aux-J                     ...    355
   Maximum angular momentum in Aux-J        ...      4
Auxiliary J/K fitting basis                 ... NOT available
Auxiliary Correlation fitting basis         ... NOT available
Auxiliary 'external' fitting basis          ... NOT available

Checking pre-screening integrals            ... done (  0.0 sec) Dimension = 71
Check shell pair data                       ... done (  0.0 sec)
Shell pair information
Shell pair cut-off parameter TPreSel        ...   2.5e-12
Total number of shell pairs                 ...      2556
Shell pairs after pre-screening             ...      2037
Total number of primitive shell pairs       ...     23004
Primitive shell pairs kept                  ...     11408
          la=0 lb=0:   1014 shell pairs
          la=1 lb=0:    844 shell pairs
          la=1 lb=1:    179 shell pairs

Calculating one electron integrals          ... done (  0.0 sec)
Calculating RI/J V-Matrix + Cholesky decomp.... done (  0.0 sec)
Calculating Nuclear repulsion               ... done (  0.0 sec) ENN=   1307.795155383169 Eh

Diagonalization of the overlap matrix:
Smallest eigenvalue                        ... 1.721e-01
Time for diagonalization                   ...    0.001 sec
Threshold for overlap eigenvalues          ... 1.000e-07
Number of eigenvalues below threshold      ... 0
Time for construction of square roots      ...    0.001 sec
Total time needed                          ...    0.003 sec

-------------------
DFT GRID GENERATION
-------------------

General Integration Accuracy     IntAcc      ... 4.388
Radial Grid Type                 RadialGrid  ... OptM3 with GC (2021)
Angular Grid (max. ang.)         AngularGrid ... 4 (Lebedev-302)
Angular grid pruning method      GridPruning ... 4 (adaptive)
Weight generation scheme         WeightScheme... mBecke (2022)
Basis function cutoff            BFCut       ... 1.0000e-11
Integration weight cutoff        WCut        ... 1.0000e-14
Partially contracted basis set               ... off
Rotationally invariant grid construction     ... off
Angular grids for H and He will be reduced by one unit

Total number of grid points                  ...   158492
Total number of batches                      ...     2493
Average number of points per batch           ...       63
Average number of grid points per atom       ...     4803
Initializing property integral containers    ... done (  0.0 sec)

SHARK setup successfully completed in   0.9 seconds

Maximum memory used throughout the entire STARTUP-calculation: 55.2 MB
-------------------------------------------------------------------------------
                                 ORCA GUESS
                   Start orbitals & Density for SCF / CASSCF
-------------------------------------------------------------------------------

------------
SCF SETTINGS
------------
Hamiltonian:
 Density Functional     Method          .... DFT(GTOs)
 Exchange Functional    Exchange        .... TPSS
 Correlation Functional Correlation     .... TPSS
 LDA part of GGA corr.  LDAOpt          .... PW91-LDA
 Gradients option       PostSCFGGA      .... off
   NL short-range parameter             ....  5.000000
 RI-approximation to the Coulomb term is turned on
   Number of AuxJ basis functions       .... 1085


General Settings:
 Integral files         IntName         .... Dexketoprofen\Dexketoprofen_TPSS_STO-3G\Dexketoprofen_TPSS_STO-3G.orcainp
 Hartree-Fock type      HFTyp           .... RHF
 Total Charge           Charge          ....    0
 Multiplicity           Mult            ....    1
 Number of Electrons    NEL             ....  134
 Basis Dimension        Dim             ....  109
 Nuclear Repulsion      ENuc            ....   1307.7951553832 Eh

Convergence Acceleration:
 AO-DIIS                CNVDIIS         .... on
   Start iteration      DIISMaxIt       ....    12
   Startup error        DIISStart       ....  0.200000
   # of expansion vecs  DIISMaxEq       ....     5
   Bias factor          DIISBfac        ....   1.050
   Max. coefficient     DIISMaxC        ....  10.000
 MO-DIIS                CNVKDIIS        .... off
 Trust-Rad. Augm. Hess. CNVTRAH         .... auto
   Auto Start mean grad. ratio tolernc. ....  1.125000
   Auto Start start iteration           ....    50
   Auto Start num. interpolation iter.  ....    10
   Max. Number of Micro iterations      ....    24
   Max. Number of Macro iterations      .... Maxiter - #DIIS iter
   Number of Davidson start vectors     ....     2
   Converg. threshold    (grad. norm)   ....   1.000e-05
   Grad. Scal. Fac. for Micro threshold ....   0.100
   Minimum threshold for Micro iter.    ....   1.000e-02
   NR start threshold (gradient norm)   ....   1.000e-04
   Initial trust radius                 ....   0.400
   Minimum AH scaling param. (alpha)    ....   1.000
   Maximum AH scaling param. (alpha)    .... 1000.000
   Quad. conv. algorithm                .... NR
   White noise on init. David. guess    .... on
   Maximum white noise                  ....   0.010
   Pseudo random numbers                .... off
   Inactive MOs                         .... canonical
   Orbital update algorithm             .... Taylor
   Preconditioner                       .... Diag
   Full preconditioner red. dimension   ....   250
 SOSCF                  CNVSOSCF        .... on
   Start iteration      SOSCFMaxIt      ....   150
   Startup grad/error   SOSCFStart      ....  0.003300
   Hessian update       SOSCFHessUp     .... L-BFGS
 Level Shifting         CNVShift        .... on
   Level shift para.    LevelShift      ....    0.2500
   Turn off err/grad.   ShiftErr        ....    0.0010
 Zerner damping         CNVZerner       .... off
 Static damping         CNVDamp         .... on
   Fraction old density DampFac         ....    0.7000
   Max. Damping (<1)    DampMax         ....    0.9800
   Min. Damping (>=0)   DampMin         ....    0.0000
   Turn off err/grad.   DampErr         ....    0.1000

SCF Procedure:
 Maximum # iterations   MaxIter         ....   125
 SCF integral mode      SCFMode         .... Direct
   Integral package                     .... SHARK and LIBINT hybrid scheme
 Reset frequency        DirectResetFreq ....    20
 Integral Threshold     Thresh          ....  2.500e-11 Eh
 Primitive CutOff       TCut            ....  2.500e-12 Eh

Convergence Tolerance:
 Convergence Check Mode ConvCheckMode   .... Total+1el-Energy
 Convergence forced     ConvForced      .... 0
 Energy Change          TolE            ....  1.000e-08 Eh
 1-El. energy change                    ....  1.000e-05 Eh
 Orbital Gradient       TolG            ....  1.000e-05
 Orbital Rotation angle TolX            ....  1.000e-05
 DIIS Error             TolErr          ....  5.000e-07

------------------------------
INITIAL GUESS: MODEL POTENTIAL
------------------------------
Loading Hartree-Fock densities                     ... done
Calculating cut-offs                               ... done
Initializing the effective Hamiltonian             ... done
Setting up the integral package (SHARK)            ... done
Starting the Coulomb interaction                   ... done (   0.1 sec)
Making the grid                                    ... done (   0.2 sec)
Mapping shells                                     ... done
Starting the XC term evaluation                    ... done (   0.1 sec)
  promolecular density results
     # of electrons  =    133.999313227
     EX              =   -110.371157787
     EC              =     -4.475780849
     EX+EC           =   -114.846938636
Transforming the Hamiltonian                       ... done (   0.0 sec)
Diagonalizing the Hamiltonian                      ... done (   0.0 sec)
Back transforming the eigenvectors                 ... done (   0.0 sec)
Now organizing SCF variables                       ... done
                      ------------------
                      INITIAL GUESS DONE (   0.5 sec)
                      ------------------
             **** ENERGY FILE WAS UPDATED (Dexketoprofen\Dexketoprofen_TPSS_STO-3G\Dexketoprofen_TPSS_STO-3G.orcainp.en.tmp) ****
Finished Guess after   0.5 sec
Maximum memory used throughout the entire GUESS-calculation: 23.5 MB

-------------------------------------------------------------------------------------------
                                      ORCA LEAN-SCF
                              memory conserving SCF solver
-------------------------------------------------------------------------------------------

--------------------
CPCM SOLVATION MODEL
--------------------
CPCM parameters:
  Epsilon                                         ...      80.1510
  Refrac                                          ...       1.3328
  Rsolv                                           ...       1.3000
  Surface type                                    ... GAUSSIAN VDW
  Discretization scheme                           ... Constant charge density
    Threshold for H atoms                         ...       5.0000 (charges/Ang^2)
    Threshold for non-H atoms                     ...       5.0000 (charges/Ang^2)
  Epsilon function type                           ...         CPCM
Solvent:                                          ... WATER
Radii:
  Scheme                                          ... Element-dependent radii
  Radius for H  used is    2.4944 Bohr (=   1.3200 Ang.)
  Radius for C  used is    3.8550 Bohr (=   2.0400 Ang.)
  Radius for O  used is    3.4469 Bohr (=   1.8240 Ang.)
Calculating surface                               ...        done! (  0.0s)
Cavity surface points                             ...         2978
Cavity Volume                                     ...    2094.2618
Cavity Surface-area                               ...    1087.9373
Calculating surface distance matrix               ...        done! (  0.0s)
Performing Cholesky decomposition & store         ...        done! (  0.2s)
Overall time for CPCM initialization              ...                 0.2s

----------------------------------------D-I-I-S--------------------------------------------
Iteration    Energy (Eh)           Delta-E    RMSDP     MaxDP     DIISErr   Damp  Time(sec)
-------------------------------------------------------------------------------------------
               ***  Starting incremental Fock matrix formation  ***
    1    -833.2441454295812946     0.00e+00  6.11e-03  1.40e-01  1.86e-01  0.700   1.3
Warning: op=0 Small HOMO/LUMO gap (   0.080) - skipping pre-diagonalization
         Will do a full diagonalization
    2    -833.3378254661570281    -9.37e-02  3.94e-03  8.43e-02  7.14e-02  0.700   1.2
                               ***Turning on AO-DIIS***
    3    -833.3695472090498697    -3.17e-02  1.59e-03  2.85e-02  4.01e-02  0.700   1.2
    4    -833.3897616692984229    -2.02e-02  2.45e-03  3.92e-02  2.02e-02  0.000   1.2
    5    -833.4351546959783263    -4.54e-02  5.59e-04  8.12e-03  6.93e-03  0.000   1.2
    6    -833.4356063664013163    -4.52e-04  1.68e-04  6.15e-03  3.83e-03  0.000   1.1
                              *** Initializing SOSCF ***
---------------------------------------S-O-S-C-F--------------------------------------
Iteration    Energy (Eh)           Delta-E    RMSDP     MaxDP     MaxGrad    Time(sec)
--------------------------------------------------------------------------------------
    7    -833.4356362601647561    -2.99e-05  7.71e-05  2.73e-03  1.69e-03     1.1
               *** Restarting incremental Fock matrix formation ***
    8    -833.4356428782216426    -6.62e-06  7.78e-05  1.95e-03  2.56e-04     1.3
    9    -833.4356395978970795     3.28e-06  5.48e-05  1.87e-03  7.72e-04     1.1
   10    -833.4356439333446360    -4.34e-06  2.23e-05  4.20e-04  1.06e-04     1.0
   11    -833.4356438178551798     1.15e-07  1.34e-05  2.87e-04  1.23e-04     1.0
   12    -833.4356440412598204    -2.23e-07  6.49e-06  1.94e-04  1.81e-05     1.0
   13    -833.4356440208835011     2.04e-08  4.25e-06  1.47e-04  2.91e-05     1.0
   14    -833.4356440473138719    -2.64e-08  2.65e-06  4.83e-05  6.13e-06     0.9
   15    -833.4356440396409198     7.67e-09  1.68e-06  3.52e-05  1.09e-05     1.0
                 **** Energy Check signals convergence ****

               *****************************************************
               *                     SUCCESS                       *
               *           SCF CONVERGED AFTER  15 CYCLES          *
               *****************************************************

             **** ENERGY FILE WAS UPDATED (Dexketoprofen\Dexketoprofen_TPSS_STO-3G\Dexketoprofen_TPSS_STO-3G.orcainp.en.tmp) ****

----------------
TOTAL SCF ENERGY
----------------

Total Energy       :       -833.43564403964092 Eh          -22678.93685 eV

Components:
Nuclear Repulsion  :       1307.79515538316900 Eh           35586.91538 eV
Electronic Energy  :      -2141.21911520774574 Eh          -58265.53429 eV
One Electron Energy:      -3733.97772654987011 Eh         -101606.69952 eV
Two Electron Energy:       1592.75861134212437 Eh           43341.16524 eV
CPCM Dielectric    :         -0.01168421506439 Eh              -0.31794 eV

Virial components:
Potential Energy   :      -1653.63140791955902 Eh          -44997.59824 eV
Kinetic Energy     :        820.19576387991810 Eh           22318.66139 eV
Virial Ratio       :          2.01614234155160

DFT components:
N(Alpha)           :       67.000021324712 electrons
N(Beta)            :       67.000021324712 electrons
N(Total)           :      134.000042649423 electrons
E(X)               :     -113.581047479975 Eh       
E(C)               :       -4.632495777722 Eh       
E(XC)              :     -118.213543257697 Eh       

CPCM Solvation Model Properties:
Surface-charge          :         -0.01083947088596
Corrected charge        :          0.00000000000000
Outlying charge corr.   :          0.00000651397951 Eh               0.00018 eV
Free-energy (cav+disp)  :  This term is not implemented in the current solvation scheme

---------------
SCF CONVERGENCE
---------------

  Last Energy change         ...   -7.6730e-09  Tolerance :   1.0000e-08
  Last MAX-Density change    ...    3.5231e-05  Tolerance :   1.0000e-07
  Last RMS-Density change    ...    1.6832e-06  Tolerance :   5.0000e-09
  Last DIIS Error            ...    1.6877e-03  Tolerance :   5.0000e-07
  Last Orbital Gradient      ...    1.0873e-05  Tolerance :   1.0000e-05
  Last Orbital Rotation      ...    1.8632e-05  Tolerance :   1.0000e-05


----------------
ORBITAL ENERGIES
----------------

  NO   OCC          E(Eh)            E(eV) 
   0   2.0000     -18.697262      -508.7784 
   1   2.0000     -18.648422      -507.4494 
   2   2.0000     -18.621617      -506.7200 
   3   2.0000      -9.916256      -269.8350 
   4   2.0000      -9.896547      -269.2987 
   5   2.0000      -9.851500      -268.0729 
   6   2.0000      -9.838462      -267.7182 
   7   2.0000      -9.833715      -267.5890 
   8   2.0000      -9.832537      -267.5569 
   9   2.0000      -9.830359      -267.4977 
  10   2.0000      -9.830009      -267.4881 
  11   2.0000      -9.829841      -267.4836 
  12   2.0000      -9.829394      -267.4714 
  13   2.0000      -9.828664      -267.4516 
  14   2.0000      -9.828523      -267.4477 
  15   2.0000      -9.828412      -267.4447 
  16   2.0000      -9.828167      -267.4380 
  17   2.0000      -9.827954      -267.4322 
  18   2.0000      -9.827506      -267.4200 
  19   2.0000      -0.963112       -26.2076 
  20   2.0000      -0.923389       -25.1267 
  21   2.0000      -0.881724       -23.9929 
  22   2.0000      -0.762856       -20.7584 
  23   2.0000      -0.757471       -20.6118 
  24   2.0000      -0.703722       -19.1493 
  25   2.0000      -0.672417       -18.2974 
  26   2.0000      -0.656004       -17.8508 
  27   2.0000      -0.649837       -17.6830 
  28   2.0000      -0.638490       -17.3742 
  29   2.0000      -0.565152       -15.3786 
  30   2.0000      -0.556457       -15.1420 
  31   2.0000      -0.526910       -14.3379 
  32   2.0000      -0.521353       -14.1867 
  33   2.0000      -0.508666       -13.8415 
  34   2.0000      -0.489149       -13.3104 
  35   2.0000      -0.463835       -12.6216 
  36   2.0000      -0.444178       -12.0867 
  37   2.0000      -0.419416       -11.4129 
  38   2.0000      -0.410104       -11.1595 
  39   2.0000      -0.390475       -10.6254 
  40   2.0000      -0.376407       -10.2426 
  41   2.0000      -0.364784        -9.9263 
  42   2.0000      -0.359825        -9.7913 
  43   2.0000      -0.349638        -9.5141 
  44   2.0000      -0.345595        -9.4041 
  45   2.0000      -0.344389        -9.3713 
  46   2.0000      -0.331658        -9.0249 
  47   2.0000      -0.311980        -8.4894 
  48   2.0000      -0.306202        -8.3322 
  49   2.0000      -0.301711        -8.2100 
  50   2.0000      -0.298781        -8.1302 
  51   2.0000      -0.286647        -7.8001 
  52   2.0000      -0.282669        -7.6918 
  53   2.0000      -0.274996        -7.4830 
  54   2.0000      -0.269425        -7.3314 
  55   2.0000      -0.262142        -7.1333 
  56   2.0000      -0.256769        -6.9870 
  57   2.0000      -0.249879        -6.7995 
  58   2.0000      -0.244636        -6.6569 
  59   2.0000      -0.203355        -5.5336 
  60   2.0000      -0.177628        -4.8335 
  61   2.0000      -0.175934        -4.7874 
  62   2.0000      -0.170592        -4.6420 
  63   2.0000      -0.166466        -4.5298 
  64   2.0000      -0.143403        -3.9022 
  65   2.0000      -0.101624        -2.7653 
  66   2.0000      -0.096433        -2.6241 
  67   0.0000       0.001683         0.0458 
  68   0.0000       0.049575         1.3490 
  69   0.0000       0.051841         1.4107 
  70   0.0000       0.056207         1.5295 
  71   0.0000       0.088706         2.4138 
  72   0.0000       0.112242         3.0543 
  73   0.0000       0.200666         5.4604 
  74   0.0000       0.227226         6.1831 
  75   0.0000       0.278484         7.5779 
  76   0.0000       0.299695         8.1551 
  77   0.0000       0.313235         8.5236 
*Only the first 10 virtual orbitals were printed.

                    ********************************
                    * MULLIKEN POPULATION ANALYSIS *
                    ********************************

-----------------------
MULLIKEN ATOMIC CHARGES
-----------------------
   0 H :    0.088857
   1 C :   -0.083647
   2 C :   -0.200528
   3 C :    0.217999
   4 O :   -0.242179
   5 O :   -0.232654
   6 C :   -0.008115
   7 C :   -0.074735
   8 C :   -0.026861
   9 C :   -0.075472
  10 C :   -0.078213
  11 C :   -0.080677
  12 C :    0.141321
  13 O :   -0.189318
  14 C :   -0.026315
  15 C :   -0.075443
  16 C :   -0.078729
  17 C :   -0.076335
  18 C :   -0.078715
  19 C :   -0.073197
  20 H :    0.076064
  21 H :    0.074714
  22 H :    0.073514
  23 H :    0.251896
  24 H :    0.085867
  25 H :    0.086511
  26 H :    0.085502
  27 H :    0.083774
  28 H :    0.088401
  29 H :    0.085826
  30 H :    0.086597
  31 H :    0.085880
  32 H :    0.088411
Sum of atomic charges:   -0.0000000

--------------------------------
MULLIKEN REDUCED ORBITAL CHARGES
--------------------------------
  0 H s       :     0.911143  s :     0.911143

  1 C s       :     3.183066  s :     3.183066
      pz      :     0.949312  p :     2.900581
      px      :     0.961240
      py      :     0.990029

  2 C s       :     3.191351  s :     3.191351
      pz      :     1.035725  p :     3.009177
      px      :     0.948544
      py      :     1.024908

  3 C s       :     3.086258  s :     3.086258
      pz      :     0.982115  p :     2.695743
      px      :     0.819937
      py      :     0.893692

  4 O s       :     3.821316  s :     3.821316
      pz      :     1.669949  p :     4.420863
      px      :     1.341350
      py      :     1.409564

  5 O s       :     3.887873  s :     3.887873
      pz      :     1.311259  p :     4.344781
      px      :     1.714239
      py      :     1.319283

  6 C s       :     3.149022  s :     3.149022
      pz      :     0.929485  p :     2.859093
      px      :     0.985633
      py      :     0.943975

  7 C s       :     3.160189  s :     3.160189
      pz      :     0.961623  p :     2.914547
      px      :     0.994808
      py      :     0.958115

  8 C s       :     3.139654  s :     3.139654
      pz      :     0.950089  p :     2.887207
      px      :     0.997637
      py      :     0.939481

  9 C s       :     3.150064  s :     3.150064
      pz      :     0.981364  p :     2.925408
      px      :     0.992297
      py      :     0.951746

 10 C s       :     3.150279  s :     3.150279
      pz      :     0.968512  p :     2.927935
      px      :     0.995899
      py      :     0.963523

 11 C s       :     3.153027  s :     3.153027
      pz      :     0.950330  p :     2.927650
      px      :     0.993310
      py      :     0.984010

 12 C s       :     3.123373  s :     3.123373
      pz      :     0.848192  p :     2.735307
      px      :     0.935931
      py      :     0.951184

 13 O s       :     3.891020  s :     3.891020
      pz      :     1.315067  p :     4.298299
      px      :     1.171838
      py      :     1.811393

 14 C s       :     3.138629  s :     3.138629
      pz      :     0.958063  p :     2.887686
      px      :     0.982097
      py      :     0.947526

 15 C s       :     3.152166  s :     3.152166
      pz      :     0.954761  p :     2.923277
      px      :     0.979593
      py      :     0.988923

 16 C s       :     3.148686  s :     3.148686
      pz      :     0.986651  p :     2.930043
      px      :     0.992206
      py      :     0.951186

 17 C s       :     3.150096  s :     3.150096
      pz      :     0.979350  p :     2.926239
      px      :     0.973868
      py      :     0.973021

 18 C s       :     3.148900  s :     3.148900
      pz      :     0.964573  p :     2.929815
      px      :     0.981239
      py      :     0.984003

 19 C s       :     3.152448  s :     3.152448
      pz      :     0.984813  p :     2.920749
      px      :     0.992181
      py      :     0.943756

 20 H s       :     0.923936  s :     0.923936

 21 H s       :     0.925286  s :     0.925286

 22 H s       :     0.926486  s :     0.926486

 23 H s       :     0.748104  s :     0.748104

 24 H s       :     0.914133  s :     0.914133

 25 H s       :     0.913489  s :     0.913489

 26 H s       :     0.914498  s :     0.914498

 27 H s       :     0.916226  s :     0.916226

 28 H s       :     0.911599  s :     0.911599

 29 H s       :     0.914174  s :     0.914174

 30 H s       :     0.913403  s :     0.913403

 31 H s       :     0.914120  s :     0.914120

 32 H s       :     0.911589  s :     0.911589



                     *******************************
                     * LOEWDIN POPULATION ANALYSIS *
                     *******************************

----------------------
LOEWDIN ATOMIC CHARGES
----------------------
   0 H :    0.050460
   1 C :   -0.048208
   2 C :   -0.103357
   3 C :    0.132680
   4 O :   -0.131391
   5 O :   -0.181732
   6 C :   -0.000880
   7 C :   -0.042512
   8 C :   -0.030800
   9 C :   -0.039418
  10 C :   -0.041324
  11 C :   -0.045896
  12 C :    0.101247
  13 O :   -0.130859
  14 C :   -0.030431
  15 C :   -0.038406
  16 C :   -0.041445
  17 C :   -0.036746
  18 C :   -0.041335
  19 C :   -0.036344
  20 H :    0.041764
  21 H :    0.040204
  22 H :    0.039309
  23 H :    0.184296
  24 H :    0.047583
  25 H :    0.048247
  26 H :    0.047353
  27 H :    0.046054
  28 H :    0.049687
  29 H :    0.047428
  30 H :    0.047889
  31 H :    0.047484
  32 H :    0.049399

-------------------------------
LOEWDIN REDUCED ORBITAL CHARGES
-------------------------------
  0 H s       :     0.949540  s :     0.949540

  1 C s       :     3.039881  s :     3.039881
      pz      :     0.984145  p :     3.008327
      px      :     1.000067
      py      :     1.024115

  2 C s       :     3.013042  s :     3.013042
      pz      :     1.056280  p :     3.090315
      px      :     0.986812
      py      :     1.047224

  3 C s       :     3.049254  s :     3.049254
      pz      :     0.993239  p :     2.818066
      px      :     0.877691
      py      :     0.947136

  4 O s       :     3.672549  s :     3.672549
      pz      :     1.671714  p :     4.458842
      px      :     1.368817
      py      :     1.418311

  5 O s       :     3.771919  s :     3.771919
      pz      :     1.321615  p :     4.409813
      px      :     1.728225
      py      :     1.359973

  6 C s       :     3.041713  s :     3.041713
      pz      :     0.972867  p :     2.959167
      px      :     0.991144
      py      :     0.995156

  7 C s       :     3.037951  s :     3.037951
      pz      :     1.001020  p :     3.004561
      px      :     0.999769
      py      :     1.003772

  8 C s       :     3.036487  s :     3.036487
      pz      :     0.998469  p :     2.994313
      px      :     1.002376
      py      :     0.993468

  9 C s       :     3.025580  s :     3.025580
      pz      :     1.011481  p :     3.013838
      px      :     0.996882
      py      :     1.005475

 10 C s       :     3.025136  s :     3.025136
      pz      :     1.008043  p :     3.016187
      px      :     0.999163
      py      :     1.008980

 11 C s       :     3.029455  s :     3.029455
      pz      :     1.002694  p :     3.016441
      px      :     0.999240
      py      :     1.014506

 12 C s       :     3.052980  s :     3.052980
      pz      :     0.916204  p :     2.845772
      px      :     0.940934
      py      :     0.988634

 13 O s       :     3.774898  s :     3.774898
      pz      :     1.358329  p :     4.355962
      px      :     1.175722
      py      :     1.821911

 14 C s       :     3.035505  s :     3.035505
      pz      :     0.993348  p :     2.994925
      px      :     1.002611
      py      :     0.998966

 15 C s       :     3.027258  s :     3.027258
      pz      :     0.991800  p :     3.011148
      px      :     0.999641
      py      :     1.019707

 16 C s       :     3.023245  s :     3.023245
      pz      :     1.008852  p :     3.018201
      px      :     1.004676
      py      :     1.004673

 17 C s       :     3.023831  s :     3.023831
      pz      :     1.005461  p :     3.012915
      px      :     0.994575
      py      :     1.012879

 18 C s       :     3.023466  s :     3.023466
      pz      :     1.002043  p :     3.017868
      px      :     1.000752
      py      :     1.015073

 19 C s       :     3.027666  s :     3.027666
      pz      :     1.006727  p :     3.008678
      px      :     1.004013
      py      :     0.997938

 20 H s       :     0.958236  s :     0.958236

 21 H s       :     0.959796  s :     0.959796

 22 H s       :     0.960691  s :     0.960691

 23 H s       :     0.815704  s :     0.815704

 24 H s       :     0.952417  s :     0.952417

 25 H s       :     0.951753  s :     0.951753

 26 H s       :     0.952647  s :     0.952647

 27 H s       :     0.953946  s :     0.953946

 28 H s       :     0.950313  s :     0.950313

 29 H s       :     0.952572  s :     0.952572

 30 H s       :     0.952111  s :     0.952111

 31 H s       :     0.952516  s :     0.952516

 32 H s       :     0.950601  s :     0.950601



                      *****************************
                      * MAYER POPULATION ANALYSIS *
                      *****************************

  NA   - Mulliken gross atomic population
  ZA   - Total nuclear charge
  QA   - Mulliken gross atomic charge
  VA   - Mayer's total valence
  BVA  - Mayer's bonded valence
  FA   - Mayer's free valence

  ATOM       NA         ZA         QA         VA         BVA        FA
  0 H      0.9111     1.0000     0.0889     0.9921     0.9921    -0.0000
  1 C      6.0836     6.0000    -0.0836     3.9588     3.9588    -0.0000
  2 C      6.2005     6.0000    -0.2005     3.9558     3.9558     0.0000
  3 C      5.7820     6.0000     0.2180     3.9109     3.9109    -0.0000
  4 O      8.2422     8.0000    -0.2422     2.3158     2.3158    -0.0000
  5 O      8.2327     8.0000    -0.2327     2.2733     2.2733    -0.0000
  6 C      6.0081     6.0000    -0.0081     3.9680     3.9680    -0.0000
  7 C      6.0747     6.0000    -0.0747     3.9649     3.9649     0.0000
  8 C      6.0269     6.0000    -0.0269     3.9731     3.9731     0.0000
  9 C      6.0755     6.0000    -0.0755     3.9689     3.9689    -0.0000
 10 C      6.0782     6.0000    -0.0782     3.9695     3.9695    -0.0000
 11 C      6.0807     6.0000    -0.0807     3.9686     3.9686     0.0000
 12 C      5.8587     6.0000     0.1413     3.9247     3.9247    -0.0000
 13 O      8.1893     8.0000    -0.1893     2.2165     2.2165    -0.0000
 14 C      6.0263     6.0000    -0.0263     3.9732     3.9732    -0.0000
 15 C      6.0754     6.0000    -0.0754     3.9685     3.9685    -0.0000
 16 C      6.0787     6.0000    -0.0787     3.9701     3.9701    -0.0000
 17 C      6.0763     6.0000    -0.0763     3.9700     3.9700     0.0000
 18 C      6.0787     6.0000    -0.0787     3.9700     3.9700    -0.0000
 19 C      6.0732     6.0000    -0.0732     3.9680     3.9680    -0.0000
 20 H      0.9239     1.0000     0.0761     0.9942     0.9942     0.0000
 21 H      0.9253     1.0000     0.0747     0.9944     0.9944     0.0000
 22 H      0.9265     1.0000     0.0735     0.9946     0.9946     0.0000
 23 H      0.7481     1.0000     0.2519     0.9365     0.9365     0.0000
 24 H      0.9141     1.0000     0.0859     0.9926     0.9926     0.0000
 25 H      0.9135     1.0000     0.0865     0.9925     0.9925    -0.0000
 26 H      0.9145     1.0000     0.0855     0.9927     0.9927    -0.0000
 27 H      0.9162     1.0000     0.0838     0.9930     0.9930    -0.0000
 28 H      0.9116     1.0000     0.0884     0.9922     0.9922    -0.0000
 29 H      0.9142     1.0000     0.0858     0.9926     0.9926     0.0000
 30 H      0.9134     1.0000     0.0866     0.9925     0.9925    -0.0000
 31 H      0.9141     1.0000     0.0859     0.9926     0.9926     0.0000
 32 H      0.9116     1.0000     0.0884     0.9922     0.9922     0.0000

  Mayer bond orders larger than 0.100000
B(  0-H ,  1-C ) :   0.9439 B(  1-C ,  2-C ) :   0.9805 B(  1-C ,  3-C ) :   0.8944 
B(  1-C ,  6-C ) :   0.9749 B(  2-C , 20-H ) :   0.9736 B(  2-C , 21-H ) :   0.9764 
B(  2-C , 22-H ) :   0.9772 B(  3-C ,  4-O ) :   1.0957 B(  3-C ,  5-O ) :   1.8686 
B(  4-O ,  5-O ) :   0.2609 B(  4-O , 23-H ) :   0.8885 B(  6-C ,  7-C ) :   1.4072 
B(  6-C ,  9-C ) :   0.1058 B(  6-C , 11-C ) :   1.3988 B(  7-C ,  8-C ) :   1.3779 
B(  7-C , 10-C ) :   0.1127 B(  7-C , 24-H ) :   0.9567 B(  8-C ,  9-C ) :   1.3902 
B(  8-C , 11-C ) :   0.1030 B(  8-C , 12-C ) :   0.9748 B(  9-C , 10-C ) :   1.4333 
B(  9-C , 25-H ) :   0.9564 B( 10-C , 11-C ) :   1.4273 B( 10-C , 26-H ) :   0.9602 
B( 11-C , 27-H ) :   0.9585 B( 12-C , 13-O ) :   1.8878 B( 12-C , 14-C ) :   0.9818 
B( 14-C , 15-C ) :   1.3789 B( 14-C , 17-C ) :   0.1052 B( 14-C , 19-C ) :   1.3817 
B( 15-C , 16-C ) :   1.4394 B( 15-C , 18-C ) :   0.1108 B( 15-C , 28-H ) :   0.9567 
B( 16-C , 17-C ) :   1.4252 B( 16-C , 19-C ) :   0.1121 B( 16-C , 29-H ) :   0.9605 
B( 17-C , 18-C ) :   1.4240 B( 17-C , 30-H ) :   0.9608 B( 18-C , 19-C ) :   1.4411 
B( 18-C , 31-H ) :   0.9604 B( 19-C , 32-H ) :   0.9565 

-------
TIMINGS
-------

Total SCF time: 0 days 0 hours 0 min 16 sec 

Total time                  ....      16.826 sec
Sum of individual times     ....      16.732 sec  ( 99.4%)

SCF preparation             ....       0.276 sec  (  1.6%)
Fock matrix formation       ....      16.328 sec  ( 97.0%)
  Startup                   ....       0.014 sec  (  0.1% of F)
  Split-RI-J                ....       3.442 sec  ( 21.1% of F)
  XC integration            ....       6.588 sec  ( 40.3% of F)
    Basis function eval.    ....       1.959 sec  ( 29.7% of XC)
    Density eval.           ....       1.846 sec  ( 28.0% of XC)
    XC-Functional eval.     ....       0.993 sec  ( 15.1% of XC)
    XC-Potential eval.      ....       1.208 sec  ( 18.3% of XC)
  CPCM terms                ....       6.200 sec  ( 38.0% of F)
Diagonalization             ....       0.000 sec  (  0.0%)
Density matrix formation    ....       0.032 sec  (  0.2%)
Total Energy calculation    ....       0.014 sec  (  0.1%)
Population analysis         ....       0.009 sec  (  0.1%)
Orbital Transformation      ....       0.006 sec  (  0.0%)
Orbital Orthonormalization  ....       0.000 sec  (  0.0%)
DIIS solution               ....       0.039 sec  (  0.2%)
SOSCF solution              ....       0.028 sec  (  0.2%)
Finished LeanSCF after  16.9 sec

Maximum memory used throughout the entire LEANSCF-calculation: 75.9 MB

-------------------------   --------------------
FINAL SINGLE POINT ENERGY      -833.435644039641
-------------------------   --------------------

------------------------------------------------------------------------------
                         ORCA SCF GRADIENT CALCULATION
------------------------------------------------------------------------------

Nuc. rep. gradient        (SHARK) ... done (  0.0 sec)
HCore & Overlap gradient  (SHARK) ... done (  0.1 sec)
Split-RIJ-J gradient      (SHARK) ... done (  0.8 sec)
XC gradient                       ... done (  3.9 sec)
CPCM gradient                     ... done (  0.7 sec)

------------------
CARTESIAN GRADIENT
------------------

   1   H   :   -0.000029478    0.010675984   -0.003259797
   2   C   :    0.013019733    0.023156344    0.002573467
   3   C   :    0.021763952   -0.008740307   -0.002037128
   4   C   :    0.015520979    0.032539769    0.022842294
   5   O   :   -0.066711730   -0.054958243   -0.033980332
   6   O   :    0.019741532   -0.061418801   -0.027544411
   7   C   :    0.001969143    0.008346637   -0.001923843
   8   C   :   -0.004616271   -0.004345344    0.002893775
   9   C   :    0.001711179   -0.007904528   -0.028600839
  10   C   :   -0.005521498   -0.010142641    0.015233310
  11   C   :   -0.000308253   -0.005024726    0.004402868
  12   C   :   -0.003085076   -0.011939893    0.005044886
  13   C   :   -0.006843341   -0.007968498   -0.030706312
  14   O   :    0.024362429    0.024421495    0.082999684
  15   C   :   -0.003560931   -0.002906846   -0.015328921
  16   C   :   -0.004487098    0.000287266   -0.007803170
  17   C   :   -0.005814700   -0.002104682   -0.003819606
  18   C   :   -0.002471415    0.006045032   -0.006099300
  19   C   :    0.004467939    0.006278774    0.004603095
  20   C   :    0.002242469    0.010515834   -0.000408631
  21   H   :   -0.001058321   -0.001233488   -0.005896266
  22   H   :    0.003249788    0.007761738    0.003610675
  23   H   :   -0.000549276   -0.003966197    0.005117436
  24   H   :    0.002193124    0.052115993    0.026416563
  25   H   :    0.002401399    0.009068738   -0.010462349
  26   H   :   -0.002344758    0.005008328    0.006816483
  27   H   :   -0.003263337   -0.008063909    0.006332908
  28   H   :   -0.000840123   -0.009236792   -0.004933223
  29   H   :   -0.002673514   -0.015055884    0.000692452
  30   H   :   -0.008286887   -0.002512945   -0.009235776
  31   H   :   -0.003207583    0.010285103   -0.009169153
  32   H   :    0.004682690    0.011403898    0.001437983
  33   H   :    0.008347234   -0.000387208    0.010191180

Difference to translation invariance:
           :    0.0000000000   -0.0000000000   -0.0000000000

Difference to rotation invariance:
           :   -0.0011578449    0.0002936392    0.0006368458

Norm of the Cartesian gradient     ...    0.1820973667
RMS gradient                       ...    0.0183014740
MAX gradient                       ...    0.0829996842

-------
TIMINGS
-------

Total SCF gradient time     ....        5.928 sec

One electron gradient       ....       0.123 sec  (  2.1%)
RI-J Coulomb gradient       ....       0.847 sec  ( 14.3%)
XC gradient                 ....       3.869 sec  ( 65.3%)
CPCM gradient               ....       0.718 sec  ( 12.1%)
   A-Matrix (El+Nuc)        ....       0.254 sec  (  4.3%)
   Potential                ....       0.464 sec  (  7.8%)

Maximum memory used throughout the entire SCFGRAD-calculation: 25.5 MB
------------------------------------------------------------------------------
                         ORCA GEOMETRY RELAXATION STEP
------------------------------------------------------------------------------

Reading the OPT-File                    .... done
Getting information on internals        .... done
Copying old internal coords+grads       .... done
Making the new internal coordinates     .... (2022 redundants) done
Validating the new internal coordinates .... (2022 redundants) done
Calculating the B-matrix                .... done
Calculating the G,G- and P matrices     .... done
Transforming gradient to internals      .... done
Projecting the internal gradient        .... done
Number of atoms                         ....  33
Number of internal coordinates          .... 163
Current Energy                          ....  -833.435644040 Eh
Current gradient norm                   ....     0.182097367 Eh/bohr
Maximum allowed component of the step   ....  0.300
Current trust radius                    ....  0.300
Evaluating the initial hessian          ....  (Almloef) done
Projecting the Hessian                  .... done
Forming the augmented Hessian           .... done
Diagonalizing the augmented Hessian     .... done
Last element of RFO vector              ....  0.953087774
Lowest eigenvalues of augmented Hessian:
 -0.053571962  0.010270894  0.010467678  0.011057532  0.012776668
Length of the computed step             ....  0.317593058
Warning: the length of the step is outside the trust region - taking restricted step instead
The input lambda is                     ....     0.009271
   iter:   5  x=   -0.012104  g=   13.949466 f(x)=     0.145222
   iter:  10  x=   -0.075057  g=    0.427825 f(x)=     0.000027
The output lambda is                    ....    -0.075057 (12 iterations)
The final length of the internal step   ....  0.300000000
Converting the step to Cartesian space:
 Initial RMS(Int)=    0.0234978135
Transforming coordinates:
 Iter   0:  RMS(Cart)=    0.0646127320 RMS(Int)=    0.9834436649
 Iter   5:  RMS(Cart)=    0.0000000207 RMS(Int)=    0.0000000159
done
Storing new coordinates                 .... done

                                .--------------------.
          ----------------------|Geometry convergence|-------------------------
          Item                value                   Tolerance       Converged
          ---------------------------------------------------------------------
          RMS gradient        0.0146023163            0.0001000000      NO
          MAX gradient        0.0898736033            0.0003000000      NO
          RMS step            0.0234978135            0.0020000000      NO
[...]
      pz      :     0.976053  p :     2.903724
      px      :     0.987413
      py      :     0.940259

 10 C s       :     3.162344  s :     3.162344
      pz      :     0.963335  p :     2.913444
      px      :     0.992336
      py      :     0.957773

 11 C s       :     3.168017  s :     3.168017
      pz      :     0.942775  p :     2.906489
      px      :     0.984734
      py      :     0.978980

 12 C s       :     3.175870  s :     3.175870
      pz      :     0.836738  p :     2.694742
      px      :     0.924080
      py      :     0.933924

 13 O s       :     3.903998  s :     3.903998
      pz      :     1.292300  p :     4.270116
      px      :     1.179557
      py      :     1.798259

 14 C s       :     3.167017  s :     3.167017
      pz      :     0.943408  p :     2.858144
      px      :     0.977602
      py      :     0.937134

 15 C s       :     3.167350  s :     3.167350
      pz      :     0.949236  p :     2.906785
      px      :     0.976535
      py      :     0.981014

 16 C s       :     3.162736  s :     3.162736
      pz      :     0.980340  p :     2.913939
      px      :     0.990038
      py      :     0.943562

 17 C s       :     3.165786  s :     3.165786
      pz      :     0.973109  p :     2.907009
      px      :     0.969779
      py      :     0.964121

 18 C s       :     3.162629  s :     3.162629
      pz      :     0.957236  p :     2.914492
      px      :     0.979957
      py      :     0.977298

 19 C s       :     3.167224  s :     3.167224
      pz      :     0.979095  p :     2.904914
      px      :     0.989231
      py      :     0.936588

 20 H s       :     0.922651  s :     0.922651

 21 H s       :     0.924436  s :     0.924436

 22 H s       :     0.925510  s :     0.925510

 23 H s       :     0.791729  s :     0.791729

 24 H s       :     0.913150  s :     0.913150

 25 H s       :     0.913373  s :     0.913373

 26 H s       :     0.913292  s :     0.913292

 27 H s       :     0.913395  s :     0.913395

 28 H s       :     0.914314  s :     0.914314

 29 H s       :     0.915500  s :     0.915500

 30 H s       :     0.915062  s :     0.915062

 31 H s       :     0.915423  s :     0.915423

 32 H s       :     0.915208  s :     0.915208



                     *******************************
                     * LOEWDIN POPULATION ANALYSIS *
                     *******************************

----------------------
LOEWDIN ATOMIC CHARGES
----------------------
   0 H :    0.048532
   1 C :   -0.035015
   2 C :   -0.100602
   3 C :    0.107399
   4 O :   -0.122650
   5 O :   -0.166170
   6 C :   -0.014899
   7 C :   -0.042537
   8 C :   -0.027847
   9 C :   -0.035066
  10 C :   -0.039351
  11 C :   -0.039421
  12 C :    0.095873
  13 O :   -0.124638
  14 C :   -0.029021
  15 C :   -0.038075
  16 C :   -0.040701
  17 C :   -0.034641
  18 C :   -0.040815
  19 C :   -0.036257
  20 H :    0.043075
  21 H :    0.041388
  22 H :    0.040605
  23 H :    0.156959
  24 H :    0.049466
  25 H :    0.048741
  26 H :    0.048983
  27 H :    0.049020
  28 H :    0.048432
  29 H :    0.047209
  30 H :    0.047471
  31 H :    0.047285
  32 H :    0.047268

-------------------------------
LOEWDIN REDUCED ORBITAL CHARGES
-------------------------------
  0 H s       :     0.951468  s :     0.951468

  1 C s       :     3.073026  s :     3.073026
      pz      :     0.965391  p :     2.961990
      px      :     0.983510
      py      :     1.013089

  2 C s       :     3.025959  s :     3.025959
      pz      :     1.051064  p :     3.074644
      px      :     1.000526
      py      :     1.023055

  3 C s       :     3.123977  s :     3.123977
      pz      :     0.935550  p :     2.768623
      px      :     0.890583
      py      :     0.942490

  4 O s       :     3.759913  s :     3.759913
      pz      :     1.427114  p :     4.362736
      px      :     1.401246
      py      :     1.534376

  5 O s       :     3.793984  s :     3.793984
      pz      :     1.298910  p :     4.372185
      px      :     1.782373
      py      :     1.290902

  6 C s       :     3.058747  s :     3.058747
      pz      :     0.970091  p :     2.956153
      px      :     0.997713
      py      :     0.988348

  7 C s       :     3.049699  s :     3.049699
      pz      :     0.999518  p :     2.992838
      px      :     0.994997
      py      :     0.998323

  8 C s       :     3.065765  s :     3.065765
      pz      :     0.988599  p :     2.962082
      px      :     0.997390
      py      :     0.976093

  9 C s       :     3.044157  s :     3.044157
      pz      :     1.006246  p :     2.990909
      px      :     0.989793
      py      :     0.994870

 10 C s       :     3.038201  s :     3.038201
      pz      :     1.003020  p :     3.001150
      px      :     0.995611
      py      :     1.002519

 11 C s       :     3.045085  s :     3.045085
      pz      :     0.994463  p :     2.994336
      px      :     0.989388
      py      :     1.010485

 12 C s       :     3.104929  s :     3.104929
      pz      :     0.900898  p :     2.799198
      px      :     0.927251
      py      :     0.971049

 13 O s       :     3.803315  s :     3.803315
      pz      :     1.332507  p :     4.321323
      px      :     1.181359
      py      :     1.807457

 14 C s       :     3.065299  s :     3.065299
      pz      :     0.980300  p :     2.963723
      px      :     0.997026
      py      :     0.986397

 15 C s       :     3.044045  s :     3.044045
      pz      :     0.987716  p :     2.994030
      px      :     0.995501
      py      :     1.010813

 16 C s       :     3.038922  s :     3.038922
      pz      :     1.004034  p :     3.001779
      px      :     1.002353
      py      :     0.995391

 17 C s       :     3.041240  s :     3.041240
      pz      :     0.999961  p :     2.993401
      px      :     0.990137
      py      :     1.003303

 18 C s       :     3.038618  s :     3.038618
      pz      :     0.996405  p :     3.002197
      px      :     0.997939
      py      :     1.007853

 19 C s       :     3.044120  s :     3.044120
      pz      :     1.002647  p :     2.992137
      px      :     1.000573
      py      :     0.988917

 20 H s       :     0.956925  s :     0.956925

 21 H s       :     0.958612  s :     0.958612

 22 H s       :     0.959395  s :     0.959395

 23 H s       :     0.843041  s :     0.843041

 24 H s       :     0.950534  s :     0.950534

 25 H s       :     0.951259  s :     0.951259

 26 H s       :     0.951017  s :     0.951017

 27 H s       :     0.950980  s :     0.950980

 28 H s       :     0.951568  s :     0.951568

 29 H s       :     0.952791  s :     0.952791

 30 H s       :     0.952529  s :     0.952529

 31 H s       :     0.952715  s :     0.952715

 32 H s       :     0.952732  s :     0.952732



                      *****************************
                      * MAYER POPULATION ANALYSIS *
                      *****************************

  NA   - Mulliken gross atomic population
  ZA   - Total nuclear charge
  QA   - Mulliken gross atomic charge
  VA   - Mayer's total valence
  BVA  - Mayer's bonded valence
  FA   - Mayer's free valence

  ATOM       NA         ZA         QA         VA         BVA        FA
  0 H      0.9135     1.0000     0.0865     0.9925     0.9925     0.0000
  1 C      6.0701     6.0000    -0.0701     3.9437     3.9437     0.0000
  2 C      6.1969     6.0000    -0.1969     3.9514     3.9514    -0.0000
  3 C      5.8228     6.0000     0.1772     3.8880     3.8880     0.0000
  4 O      8.2028     8.0000    -0.2028     2.3258     2.3258     0.0000
  5 O      8.2142     8.0000    -0.2142     2.2902     2.2902     0.0000
  6 C      6.0234     6.0000    -0.0234     3.9613     3.9613     0.0000
  7 C      6.0750     6.0000    -0.0750     3.9606     3.9606     0.0000
  8 C      6.0241     6.0000    -0.0241     3.9607     3.9607    -0.0000
  9 C      6.0711     6.0000    -0.0711     3.9624     3.9624     0.0000
 10 C      6.0758     6.0000    -0.0758     3.9645     3.9645     0.0000
 11 C      6.0745     6.0000    -0.0745     3.9627     3.9627     0.0000
 12 C      5.8706     6.0000     0.1294     3.9074     3.9074     0.0000
 13 O      8.1741     8.0000    -0.1741     2.2283     2.2283     0.0000
 14 C      6.0252     6.0000    -0.0252     3.9608     3.9608     0.0000
 15 C      6.0741     6.0000    -0.0741     3.9627     3.9627    -0.0000
 16 C      6.0767     6.0000    -0.0767     3.9645     3.9645     0.0000
 17 C      6.0728     6.0000    -0.0728     3.9639     3.9639    -0.0000
 18 C      6.0771     6.0000    -0.0771     3.9646     3.9646     0.0000
 19 C      6.0721     6.0000    -0.0721     3.9626     3.9626     0.0000
 20 H      0.9227     1.0000     0.0773     0.9940     0.9940    -0.0000
 21 H      0.9244     1.0000     0.0756     0.9943     0.9943     0.0000
 22 H      0.9255     1.0000     0.0745     0.9945     0.9945    -0.0000
 23 H      0.7917     1.0000     0.2083     0.9566     0.9566     0.0000
 24 H      0.9132     1.0000     0.0868     0.9925     0.9925     0.0000
 25 H      0.9134     1.0000     0.0866     0.9925     0.9925     0.0000
 26 H      0.9133     1.0000     0.0867     0.9925     0.9925     0.0000
 27 H      0.9134     1.0000     0.0866     0.9925     0.9925     0.0000
 28 H      0.9143     1.0000     0.0857     0.9927     0.9927    -0.0000
 29 H      0.9155     1.0000     0.0845     0.9929     0.9929     0.0000
 30 H      0.9151     1.0000     0.0849     0.9928     0.9928     0.0000
 31 H      0.9154     1.0000     0.0846     0.9928     0.9928    -0.0000
 32 H      0.9152     1.0000     0.0848     0.9928     0.9928     0.0000

  Mayer bond orders larger than 0.100000
B(  0-H ,  1-C ) :   0.9472 B(  1-C ,  2-C ) :   0.9787 B(  1-C ,  3-C ) :   0.8592 
B(  1-C ,  6-C ) :   0.9795 B(  2-C , 20-H ) :   0.9729 B(  2-C , 21-H ) :   0.9758 
B(  2-C , 22-H ) :   0.9760 B(  3-C ,  4-O ) :   1.0810 B(  3-C ,  5-O ) :   1.8926 
B(  4-O ,  5-O ) :   0.2526 B(  4-O , 23-H ) :   0.8941 B(  6-C ,  7-C ) :   1.3935 
B(  6-C ,  9-C ) :   0.1044 B(  6-C , 11-C ) :   1.3736 B(  7-C ,  8-C ) :   1.3816 
B(  7-C , 10-C ) :   0.1042 B(  7-C , 24-H ) :   0.9527 B(  8-C ,  9-C ) :   1.3774 
B(  8-C , 11-C ) :   0.1049 B(  8-C , 12-C ) :   0.9567 B(  9-C , 10-C ) :   1.4314 
B(  9-C , 25-H ) :   0.9558 B( 10-C , 11-C ) :   1.4305 B( 10-C , 26-H ) :   0.9585 
B( 11-C , 27-H ) :   0.9569 B( 12-C , 13-O ) :   1.9019 B( 12-C , 14-C ) :   0.9600 
B( 14-C , 15-C ) :   1.3795 B( 14-C , 17-C ) :   0.1077 B( 14-C , 19-C ) :   1.3760 
B( 15-C , 16-C ) :   1.4341 B( 15-C , 18-C ) :   0.1096 B( 15-C , 28-H ) :   0.9556 
B( 16-C , 17-C ) :   1.4231 B( 16-C , 19-C ) :   0.1107 B( 16-C , 29-H ) :   0.9592 
B( 17-C , 18-C ) :   1.4162 B( 17-C , 30-H ) :   0.9597 B( 18-C , 19-C ) :   1.4424 
B( 18-C , 31-H ) :   0.9591 B( 19-C , 32-H ) :   0.9561 

-------
TIMINGS
-------

Total SCF time: 0 days 0 hours 0 min 6 sec 

Total time                  ....       6.800 sec
Sum of individual times     ....       6.710 sec  ( 98.7%)

SCF preparation             ....       0.286 sec  (  4.2%)
Fock matrix formation       ....       6.335 sec  ( 93.2%)
  Startup                   ....       0.006 sec  (  0.1% of F)
  Split-RI-J                ....       1.349 sec  ( 21.3% of F)
  XC integration            ....       2.548 sec  ( 40.2% of F)
    Basis function eval.    ....       0.747 sec  ( 29.3% of XC)
    Density eval.           ....       0.733 sec  ( 28.8% of XC)
    XC-Functional eval.     ....       0.358 sec  ( 14.1% of XC)
    XC-Potential eval.      ....       0.451 sec  ( 17.7% of XC)
  CPCM terms                ....       2.397 sec  ( 37.8% of F)
Diagonalization             ....       0.000 sec  (  0.0%)
Density matrix formation    ....       0.012 sec  (  0.2%)
Total Energy calculation    ....       0.006 sec  (  0.1%)
Population analysis         ....       0.047 sec  (  0.7%)
Orbital Transformation      ....       0.003 sec  (  0.0%)
Orbital Orthonormalization  ....       0.000 sec  (  0.0%)
DIIS solution               ....       0.004 sec  (  0.1%)
SOSCF solution              ....       0.017 sec  (  0.3%)
Finished LeanSCF after   6.9 sec

Maximum memory used throughout the entire LEANSCF-calculation: 79.4 MB

-------------------------   --------------------
FINAL SINGLE POINT ENERGY      -833.471326815404
-------------------------   --------------------

                                *** OPTIMIZATION RUN DONE ***


------------------------------------------------------------------------------
                              ORCA PROPERTY CALCULATIONS
------------------------------------------------------------------------------

GBWName                                 ... Dexketoprofen\Dexketoprofen_TPSS_STO-3G\Dexketoprofen_TPSS_STO-3G.orcainp.gbw
Number of atoms                         ...     33
Number of basis functions               ...    109
Max core memory                         ...   1024 MB

Electric properties:
Dipole moment                           ... YES
Quadrupole moment                       ...  NO
Static polarizability (Dipole/Dipole)   ...  NO
Static polarizability (Dipole/Quad.)    ...  NO
Static polarizability (Quad./Quad.)     ...  NO
Static polarizability (Velocity)        ...  NO

Atomic electric properties:
Dipole moment                           ...  NO
Quadrupole moment                       ...  NO
Static polarizability                   ...  NO

Choice of electric origin               ... Center of mass
Position of electric origin             ...     5.520226    -4.507459    -3.020649

General magnetic properties:
Magnetizability                         ...  NO

EPR properties:
g-Tensor (aka g-matrix)                 ...  NO
Zero-Field splitting spin-orbit         ...  NO
Zero-field splitting spin-spin          ...  NO
Hyperfine couplings                     ...  NO (   0 nuclei)
Quadrupole couplings                    ...  NO (   0 nuclei)
Contact density                         ...  NO (   0 nuclei)

NMR properties:
Chemical shifts                         ...  NO (   0 nuclei)
Spin-rotation constants                 ...  NO (   0 nuclei)
Spin-spin couplings                     ...  NO (   0 nuclei,    0 pairs)

Choice of magnetic origin               ... GIAO
Position of magnetic origin             ...     0.000000     0.000000     0.000000

Properties with geometric perturbations:
SCF Hessian                             ...  NO
IR spectrum                             ...  NO
VCD spectrum                            ...  NO
X-ray spectroscopy properties:
SCF XES/XAS/RIXS spectra                ...  NO


-------------
DIPOLE MOMENT
-------------

Method             : SCF
Type of density    : Electron Density
Multiplicity       :   1
Irrep              :   0
Energy             :  -833.4713268154039270 Eh
Relativity type    : 
Basis              : AO
                                X                 Y                 Z
Electronic contribution:      4.242668200      -1.840014920      -3.487221100
Nuclear contribution   :     -4.370896890       1.235548958       3.275170772
                        -----------------------------------------
Total Dipole Moment    :     -0.128228690      -0.604465962      -0.212050328
                        -----------------------------------------
Magnitude (a.u.)       :      0.653289398
Magnitude (Debye)      :      1.660529686



--------------------
Rotational spectrum 
--------------------
 
Rotational constants in cm-1:             0.019181             0.007109             0.005782 
Rotational constants in MHz :           575.029572           213.113021           173.326518 

Dipole components along the rotational axes: 
x,y,z [a.u.] :    -0.622590    -0.067915     0.185893 
x,y,z [Debye]:    -1.582498    -0.172626     0.472502 

 

Dipole moment calculation done in   0.0 sec 

Maximum memory used throughout the entire PROP-calculation: 10.7 MB

--------------------------------
SUGGESTED CITATIONS FOR THIS RUN
--------------------------------

Below you find a list of papers that are relevant to this ORCA run
We neither can nor want to force you to cite these papers, but we appreciate if you do
You receive ORCA, which is the product of decades of hard work by many enthusiastic individuals, for free
The only thing we kindly ask in return is that you cite our papers,
We deeply appreciate it, if you show your appreciation for ORCA by not just citing the generic ORCA reference.

Please note that relegating all ORCA citations to the supporting information does *not* help us.
SI sections are not indexed - citations you put there will not count into any citation statistics
But we need these citations in order to attract the funding resources that allow us to do what we are doing

Therefore, if you are a happy ORCA user, please consider citing a few of the papers listed below in the main body of your paper

In addition to the list printed below, the program has created the file Dexketoprofen\Dexketoprofen_TPSS_STO-3G\Dexketoprofen_TPSS_STO-3G.orcainp.bibtex that contains the list in bibtex format
You can import this file easily into all common literature databanks and citation aid programs


List of essential papers. We consider these as the minimum necessary citations

  1. Neese,F.
     Software update: the ORCA program system, version 5.0
     WIRES Comput. Molec. Sci., 2022 12(1)e1606
     doi.org/10.1002/wcms.1606

List of papers to cite with high priority. The work reported in these papers was absolutely
necessary for this run to complete.
Our perspective: the developers of density functionals and basis sets usually get cited in chemistry papers
Good! But without the algorithms to do something with them, the functionals or basis sets would not do anything.
Hence, in our opinion, the algorithm design and method developments papers are equally worthy of getting cited

  1. Neese,F.
     An improvement of the resolution of the identity approximation for the formation of the Coulomb matrix
     J. Comp. Chem., 2003 24(14)1740-1747
     doi.org/10.1002/jcc.10318
  2. Garcia-Rates,M.; Neese,F.
     Effect of the Solute Cavity on the Solvation Energy and its Derivatives within the Framework of the Gaussian Charge Scheme
     J. Comput. Chem., 2020 41 922-939
     doi.org/10.1002/jcc.26139
  3. Neese,F.
     The SHARK Integral Generation and Digestion System
     J. Comp. Chem., 2022  1-16
     doi.org/10.1002/jcc.26942

List of suggested additional citations. These are papers that are important in the 'surrounding' of 
of this run, or papers that preceded the highly important papers. If you like your results we are grateful for a citation.

  1. Neese,F.
     The ORCA program system
     WIRES Comput. Molec. Sci., 2012 2(1)73-78
     doi.org/10.1002/wcms.81
  2. Neese,F.
     Software update: the ORCA program system, version 4.0
     WIRES Comput. Molec. Sci., 2018 8(1)1-6
     doi.org/10.1002/wcms.1327
  3. Neese,F.; Wennmohs,F.; Becker,U.; Riplinger,C.
     The ORCA quantum chemistry program package
     J. Chem. Phys., 2020 152 Art. No. L224108
     doi.org/10.1063/5.0004608

List of optional additional citations

  1. Neese,F.
     Approximate second-order SCF convergence for spin unrestricted wavefunctions
     Chem. Phys. Lett., 2000 325(1-3)93-98
     doi.org/10.1016/s0009-2614(00)00662-x

Timings for individual modules:

Sum of individual times          ...      420.177 sec (=   7.003 min)
Startup calculation              ...       23.392 sec (=   0.390 min)   5.6 %
SCF iterations                   ...      252.789 sec (=   4.213 min)  60.2 %
Property calculations            ...        0.074 sec (=   0.001 min)   0.0 %
SCF Gradient evaluation          ...      143.645 sec (=   2.394 min)  34.2 %
Geometry relaxation              ...        0.277 sec (=   0.005 min)   0.1 %
                             ****ORCA TERMINATED NORMALLY****
TOTAL RUN TIME: 0 days 0 hours 7 minutes 2 seconds 369 msec
