
                                 *****************
                                 * O   R   C   A *
                                 *****************

                                            #,                                       
                                            ###                                      
                                            ####                                     
                                            #####                                    
                                            ######                                   
                                           ########,                                 
                                     ,,################,,,,,                         
                               ,,#################################,,                 
                          ,,##########################################,,             
                       ,#########################################, ''#####,          
                    ,#############################################,,   '####,        
                  ,##################################################,,,,####,       
                ,###########''''           ''''###############################       
              ,#####''   ,,,,##########,,,,          '''####'''          '####       
            ,##' ,,,,###########################,,,                        '##       
           ' ,,###''''                  '''############,,,                           
         ,,##''                                '''############,,,,        ,,,,,,###''
      ,#''                                            '''#######################'''  
     '                                                          ''''####''''         
             ,#######,   #######,   ,#######,      ##                                
            ,#'     '#,  ##    ##  ,#'     '#,    #''#        ,####,   ,####,        
            ##       ##  ##   ,#'  ##            #'  '#       #'       #'  '#        
            ##       ##  #######   ##           ,######,      #####,   #    #        
            '#,     ,#'  ##    ##  '#,     ,#' ,#      #,     #,   #   #,  ,#        
             '#######'   ##     ##  '#######'  #'      '#     '####' # '####'        



                #########################################################
                #                        -***-                          #
                #          Department of theory and spectroscopy        #
                #                                                       #
                #                      Frank Neese                      #
                #                                                       #
                #     Directorship, Architecture, Infrastructure        #
                #                    SHARK, DRIVERS                     #
                #        Core code/Algorithms in most modules           #
                #                                                       #
                #        Max Planck Institute fuer Kohlenforschung      #
                #                Kaiser Wilhelm Platz 1                 #
                #                 D-45470 Muelheim/Ruhr                 #
                #                      Germany                          #
                #                                                       #
                #                  All rights reserved                  #
                #                        -***-                          #
                #########################################################


                         Program Version 6.0.0  -   RELEASE   -


 With contributions from (in alphabetic order):
   Daniel Aravena         : Magnetic Suceptibility
   Michael Atanasov       : Ab Initio Ligand Field Theory (pilot matlab implementation)
   Alexander A. Auer      : GIAO ZORA, VPT2 properties, NMR spectrum
   Ute Becker             : All parallelization in ORCA, NUMFREQ, NUMCALC
   Giovanni Bistoni       : ED, misc. LED, open-shell LED, HFLD
   Martin Brehm           : Molecular dynamics
   Dmytro Bykov           : pre 5.0 version of the SCF Hessian
   Marcos Casanova-Páez   : Triplet and SCS-CIS(D). UHF-(DLPNO)-IP/EA/STEOM-CCSD. UHF-CVS-IP/STEOM-CCSD
   Vijay G. Chilkuri      : MRCI spin determinant printing, contributions to CSF-ICE
   Pauline Colinet        : FMM embedding
   Dipayan Datta          : RHF DLPNO-CCSD density
   Achintya Kumar Dutta   : EOM-CC, STEOM-CC
   Nicolas Foglia         : Exact transition moments, OPA infrastructure, MCD improvements
   Dmitry Ganyushin       : Spin-Orbit,Spin-Spin,Magnetic field MRCI
   Miquel Garcia          : C-PCM and meta-GGA Hessian, CCSD/C-PCM, Gaussian charge scheme
   Tiago L. C. Gouveia    : GS-ROHF, GS-ROCIS
   Yang Guo               : DLPNO-NEVPT2, F12-NEVPT2, CIM, IAO-localization
   Andreas Hansen         : Spin unrestricted coupled pair/coupled cluster methods
   Ingolf Harden          : AUTO-CI MPn and infrastructure 
   Benjamin Helmich-Paris : MC-RPA, TRAH-(SCF,CASSCF), AVAS, COSX integrals, SCF dyn. polar.
   Lee Huntington         : MR-EOM, pCC
   Robert Izsak           : Overlap fitted RIJCOSX, COSX-SCS-MP3, EOM
   Riya Kayal             : Wick's Theorem for AUTO-CI, AUTO-CI UHF-CCSDT
   Emily Kempfer          : AUTO-CI, RHF CISDT and CCSDT
   Christian Kollmar      : KDIIS, OOCD, Brueckner-CCSD(T), CCSD density, CASPT2, CASPT2-K, improved NEVPT2
   Axel Koslowski         : Symmetry handling
   Simone Kossmann        : Meta GGA functionals, TD-DFT gradient, OOMP2, (MP2 Hessian; deprecated post 5.0)
   Lucas Lang             : DCDCAS
   Marvin Lechner         : AUTO-CI (C++ implementation), FIC-MRCC
   Spencer Leger          : CASSCF response
   Dagmar Lenk            : GEPOL surface, SMD, ORCA-2-JSON
   Dimitrios Liakos       : Extrapolation schemes; Compound Job, initial MDCI parallelization
   Dimitrios Manganas     : Further ROCIS development; embedding schemes. LFT, Crystal Embedding
   Dimitrios Pantazis     : SARC Basis sets
   Anastasios Papadopoulos: AUTO-CI, single reference methods and gradients
   Taras Petrenko         : pre 6.0 DFT Hessian and TD-DFT gradient, (ASA, deprecated), ECA, 1-Electron XAS/XES, NRVS
   Peter Pinski           : DLPNO-MP2, DLPNO-MP2 Gradient
   Christoph Reimann      : Effective Core Potentials
   Marius Retegan         : Local ZFS, SOC
   Christoph Riplinger    : Optimizer, TS searches, QM/MM, DLPNO-CCSD(T), (RO)-DLPNO pert. Triples
   Michael Roemelt        : Original ROCIS implementation
   Masaaki Saitow         : Open-shell DLPNO-CCSD energy and density
   Barbara Sandhoefer     : DKH picture change effects
   Kantharuban Sivalingam : CASSCF convergence/infrastructure, NEVPT2 and variants, FIC-MRCI
   Bernardo de Souza      : ESD, SOC TD-DFT
   Georgi Stoychev        : AutoAux, RI-MP2 NMR, DLPNO-MP2 response, X2C
   Van Anh Tran           : RI-MP2 g-tensors
   Willem Van den Heuvel  : Paramagnetic NMR
   Zikuan Wang            : NOTCH, Electric field optimization 
   Frank Wennmohs         : Technical directorship and infrastructure
   Hang Xu                : AUTO-CI-Response properties 


 We gratefully acknowledge several colleagues who have allowed us to
 interface, adapt or use parts of their codes:
   Stefan Grimme, W. Hujo, H. Kruse, P. Pracht,  : VdW corrections, initial TS optimization,
                  C. Bannwarth, S. Ehlert,         DFT functionals, gCP, sTDA/sTD-DF
                  L. Wittmann, M. Mueller
   Ed Valeev, F. Pavosevic, A. Kumar             : LibInt (2-el integral package), F12 methods
   Garnet Chan, S. Sharma, J. Yang, R. Olivares  : DMRG
   Ulf Ekstrom                                   : XCFun DFT Library
   Mihaly Kallay                                 : mrcc  (arbitrary order and MRCC methods)
   Frank Weinhold                                : gennbo (NPA and NBO analysis)
   Simon Mueller                                 : openCOSMO-RS
   Christopher J. Cramer and Donald G. Truhlar   : smd solvation model
   Lars Goerigk                                  : TD-DFT with DH, B97 family of functionals
   V. Asgeirsson, H. Jonsson                     : NEB implementation
   FAccTs GmbH                                   : IRC, NEB, NEB-TS, DLPNO-Multilevel, CI-OPT
                                                   MM, QMMM, 2- and 3-layer-ONIOM, Crystal-QMMM,
                                                   LR-CPCM, SF, NACMEs, symmetry and pop. for TD-DFT,
                                                   nearIR, NL-DFT gradient (VV10), updates on ESD,
                                                   ML-optimized integration grids, MBIS, APM,
                                                   GOAT, DOCKER, SOLVATOR, interface openCOSMO-RS
   S Lehtola, MJT Oliveira, MAL Marques          : LibXC Library
   Liviu Ungur et al                             : ANISO software


 Your calculation uses the libint2 library for the computation of 2-el integrals
 For citations please refer to: http://libint.valeyev.net

 Your ORCA version has been built with support for libXC version: 6.2.2
 For citations please refer to: https://libxc.gitlab.io

 This ORCA versions uses:
   CBLAS   interface :  Fast vector & matrix operations
   LAPACKE interface :  Fast linear algebra routines
   Shared memory     :  Shared parallel matrices


Warning: RI is on but no J-basis has been assigned. Assigning Def2/J (nothing to worry about!)
================================================================================

----- Orbital basis set information -----
Your calculation utilizes the basis: STO-3G
   H-Ne       : W. J. Hehre, R. F. Stewart and J. A. Pople, J. Chem. Phys. 2657 (1969).
   Na-Ar      : W. J. Hehre, R. Ditchfield, R. F. Stewart and J. A. Pople, J. Chem. Phys. 2769 (1970).
   K,Ca,Ga-Kr : W. J. Pietro, B. A. Levy, W. J. Hehre and R. F. Stewart, J. Am. Chem. Soc. 19, 2225 (1980).
   Sc-Zn,Y-Cd : W. J. Pietro and W. J. Hehre, J. Comp. Chem. 4, 241 (1983).

----- AuxJ basis set information -----
Your calculation utilizes the auxiliary basis: def2/J
   F. Weigend, Phys. Chem. Chem. Phys. 8, 1057 (2006).

================================================================================
                                        WARNINGS
                       Please study these warnings very carefully!
================================================================================

WARNING: Old DensityContainer found on disk!
         Will remove this file - 
         If you want to keep old densities, please start your calculation with a different basename. 

INFO   : Checking CIS options ...

WARNING: CIS/ROCIS methods need fully converged wavefunctions
  ===> : Setting SCFConvForced true
         You can overwrite this default with %scf ConvForced false 


================================================================================
                                       INPUT FILE
================================================================================
NAME = Dexketoprofen\Dexketoprofen_TPSS_STO-3G\Dexketoprofen_TPSS_STO-3G.orcainp.xyz
|  1> # ORCA xyz input file 
|  2> # 
|  3> !TPSS STO-3G CPCM(WATER) LARGEPRINT 
|  4> %tddft
|  5>     NRoots 30
|  6>     MaxDim 5
|  7> end
|  8> * xyz 0 1
|  9>   H           1.62604383012517     -1.04908508639478      0.50223460669790
| 10>   C           1.87380883614319     -0.13174925359269     -0.07606588164844
| 11>   C           0.62255705969539      0.81014411438199     -0.06847852418484
| 12>   C           3.08063792528832      0.57828417224037      0.72317665020579
| 13>   O           4.39436264749340      0.18081434373836      0.31944023783096
| 14>   O           2.93449269876757      1.39883842843568      1.66700569905144
| 15>   C           2.30003167370181     -0.57408408653365     -1.49830661518575
| 16>   C           2.40141866660074     -1.95647572671427     -1.81292694856542
| 17>   C           2.78181437710471     -2.39021858706178     -3.11216339832364
| 18>   C           3.04578025097096     -1.41586746590491     -4.11461304213728
| 19>   C           2.96181854703437     -0.03937335175850     -3.81181572774552
| 20>   C           2.59290516113859      0.38103861863351     -2.51434810725783
| 21>   C           2.82558013249554     -3.88585246637493     -3.50843283533102
| 22>   O           2.57503978468829     -4.25096920158879     -4.70221941708155
| 23>   C           3.17656527784947     -4.92259595213472     -2.41644536748381
| 24>   C           4.05907459753487     -4.63425519404807     -1.33843970833127
| 25>   C           4.39624397453790     -5.63910534885182     -0.40390724145086
| 26>   C           3.85403898791800     -6.93962211128809     -0.53032622281041
| 27>   C           2.98365556111063     -7.24057603753185     -1.60579099735258
| 28>   C           2.65641360173696     -6.24157439977554     -2.54677289869487
| 29>   H           0.41725424694713      1.13545730886927      0.96808840354739
| 30>   H          -0.26190644993930      0.27447272053973     -0.45882207670188
| 31>   H           0.79946674651137      1.70588667368297     -0.69015801432255
| 32>   H           4.19731151024155     -0.45048941657588     -0.48214431080280
| 33>   H           2.16132515444389     -2.70304094209980     -1.03709204824259
| 34>   H           3.32096073627288     -1.75239155496804     -5.12922783513698
| 35>   H           3.18121238285044      0.71124774010920     -4.58992127700772
| 36>   H           2.52931210391493      1.45852693646578     -2.28605979086814
| 37>   H           4.49618973765456     -3.62647344257966     -1.24203457695696
| 38>   H           5.08593911242896     -5.40727218808030      0.42518091514270
| 39>   H           4.11456057354709     -7.72011236228813      0.20454454859993
| 40>   H           2.56445499250088     -8.25561008346670     -1.70964817007699
| 41>   H           1.98745556068964     -6.46826679748389     -3.39515002737434
| 42> *
| 43> 
| 44>                          ****END OF INPUT****
================================================================================

                       ****************************
                       * Single Point Calculation *
                       ****************************

---------------------------------
CARTESIAN COORDINATES (ANGSTROEM)
---------------------------------
  H      1.626044   -1.049085    0.502235
  C      1.873809   -0.131749   -0.076066
  C      0.622557    0.810144   -0.068479
  C      3.080638    0.578284    0.723177
  O      4.394363    0.180814    0.319440
  O      2.934493    1.398838    1.667006
  C      2.300032   -0.574084   -1.498307
  C      2.401419   -1.956476   -1.812927
  C      2.781814   -2.390219   -3.112163
  C      3.045780   -1.415867   -4.114613
  C      2.961819   -0.039373   -3.811816
  C      2.592905    0.381039   -2.514348
  C      2.825580   -3.885852   -3.508433
  O      2.575040   -4.250969   -4.702219
  C      3.176565   -4.922596   -2.416445
  C      4.059075   -4.634255   -1.338440
  C      4.396244   -5.639105   -0.403907
  C      3.854039   -6.939622   -0.530326
  C      2.983656   -7.240576   -1.605791
  C      2.656414   -6.241574   -2.546773
  H      0.417254    1.135457    0.968088
  H     -0.261906    0.274473   -0.458822
  H      0.799467    1.705887   -0.690158
  H      4.197312   -0.450489   -0.482144
  H      2.161325   -2.703041   -1.037092
  H      3.320961   -1.752392   -5.129228
  H      3.181212    0.711248   -4.589921
  H      2.529312    1.458527   -2.286060
  H      4.496190   -3.626473   -1.242035
  H      5.085939   -5.407272    0.425181
  H      4.114561   -7.720112    0.204545
  H      2.564455   -8.255610   -1.709648
  H      1.987456   -6.468267   -3.395150

----------------------------
CARTESIAN COORDINATES (A.U.)
----------------------------
  NO LB      ZA    FRAG     MASS         X           Y           Z
   0 H     1.0000    0     1.008    3.072778   -1.982484    0.949086
   1 C     6.0000    0    12.011    3.540986   -0.248970   -0.143744
   2 C     6.0000    0    12.011    1.176462    1.530951   -0.129406
   3 C     6.0000    0    12.011    5.821562    1.092799    1.366606
   4 O     8.0000    0    15.999    8.304142    0.341690    0.603655
   5 O     8.0000    0    15.999    5.545388    2.643422    3.150184
   6 C     6.0000    0    12.011    4.346430   -1.084862   -2.831389
   7 C     6.0000    0    12.011    4.538024   -3.697203   -3.425935
   8 C     6.0000    0    12.011    5.256867   -4.516859   -5.881137
   9 C     6.0000    0    12.011    5.755691   -2.675602   -7.775492
  10 C     6.0000    0    12.011    5.597026   -0.074405   -7.203288
  11 C     6.0000    0    12.011    4.899881    0.720059   -4.751429
  12 C     6.0000    0    12.011    5.339573   -7.343197   -6.629977
  13 O     8.0000    0    15.999    4.866120   -8.033168   -8.885907
  14 C     6.0000    0    12.011    6.002838   -9.302358   -4.566420
  15 C     6.0000    0    12.011    7.670539   -8.757473   -2.529284
  16 C     6.0000    0    12.011    8.307697  -10.656365   -0.763274
  17 C     6.0000    0    12.011    7.283078  -13.113985   -1.002171
  18 C     6.0000    0    12.011    5.638292  -13.682706   -3.034505
  19 C     6.0000    0    12.011    5.019894  -11.794866   -4.812703
  20 H     1.0000    0     1.008    0.788496    2.145703    1.829422
  21 H     1.0000    0     1.008   -0.494931    0.518678   -0.867048
  22 H     1.0000    0     1.008    1.510773    3.223659   -1.304210
  23 H     1.0000    0     1.008    7.931769   -0.851302   -0.911121
  24 H     1.0000    0     1.008    4.084313   -5.108007   -1.959820
  25 H     1.0000    0     1.008    6.275706   -3.311540   -9.692836
  26 H     1.0000    0     1.008    6.011620    1.344063   -8.673694
  27 H     1.0000    0     1.008    4.779707    2.756216   -4.320027
  28 H     1.0000    0     1.008    8.496567   -6.853042   -2.347105
  29 H     1.0000    0     1.008    9.611032  -10.218264    0.803475
  30 H     1.0000    0     1.008    7.775393  -14.588898    0.386533
  31 H     1.0000    0     1.008    4.846118  -15.600842   -3.230767
  32 H     1.0000    0     1.008    3.755747  -12.223253   -6.415904

--------------------------------
INTERNAL COORDINATES (ANGSTROEM)
--------------------------------
 H      0   0   0     0.000000000000     0.00000000     0.00000000
 C      1   0   0     1.112350656570     0.00000000     0.00000000
 C      2   1   0     1.566158259146   108.39066804     0.00000000
 C      2   1   3     1.612256971122   105.79471132   117.14836191
 O      4   2   1     1.430684451925   115.15677929    90.42258011
 O      4   2   1     1.259158841465   124.86871497   272.44931240
 C      2   1   3     1.549223907582   107.64353540   237.06985298
 C      7   2   1     1.421362699435   120.03470038   355.82525590
 C      8   7   2     1.421565727588   121.20765736   179.58773692
 C      9   8   7     1.422653639593   118.99144531   359.11411796
 C     10   9   8     1.411903618386   120.36831841     1.51364286
 C     11  10   9     1.412892613526   120.16944519   358.95698360
 C      9   8   7     1.547858394363   122.43678861   183.46215631
 O     13   9   8     1.273266311099   120.76699029   148.35320025
 C     13   9   8     1.546112627676   118.26351529   328.54801314
 C     15  13   9     1.422694378027   122.68896909   327.91023953
 C     16  15  13     1.413066861140   120.33182122   183.08563799
 C     17  16  15     1.414677297387   120.21038484   359.75254628
 C     18  17  16     1.415897262044   119.92611278     0.77828057
 C     19  18  17     1.410864455172   119.91213624   359.83071739
 H      3   2   1     1.105644117742   109.25924675    64.17886675
 H      3   2   1     1.105254554864   110.25175252   304.44371611
 H      3   2   1     1.104598188614   110.91668059   183.85190447
 H      5   4   2     1.039187844948   102.25895144     4.20992260
 H      8   7   2     1.103142922727   119.14401609     0.74366458
 H     10   9   8     1.103818798619   119.02186989   181.24610459
 H     11  10   9     1.103183540733   120.01708291   179.16011025
 H     12  11  10     1.103241001501   119.71457205   180.02058756
 H     16  15  13     1.102718302047   119.82524658     1.99594396
 H     17  16  15     1.103092547825   119.78904442   179.64877810
 H     18  17  16     1.103209671440   120.02289813   180.37087531
 H     19  18  17     1.103090904439   120.04689200   179.63894452
 H     20  19  18     1.103919406627   120.51158846   179.34083695

---------------------------
INTERNAL COORDINATES (A.U.)
---------------------------
 H      0   0   0     0.000000000000     0.00000000     0.00000000
 C      1   0   0     2.102038105805     0.00000000     0.00000000
 C      2   1   0     2.959610192165   108.39066804     0.00000000
 C      2   1   3     3.046724132926   105.79471132   117.14836191
 O      4   2   1     2.703601798197   115.15677929    90.42258011
 O      4   2   1     2.379465369475   124.86871497   272.44931240
 C      2   1   3     2.927608905452   107.64353540   237.06985298
 C      7   2   1     2.685986238904   120.03470038   355.82525590
 C      8   7   2     2.686369906510   121.20765736   179.58773692
 C      9   8   7     2.688425762257   118.99144531   359.11411796
 C     10   9   8     2.668111166241   120.36831841     1.51364286
 C     11  10   9     2.669980096204   120.16944519   358.95698360
 C      9   8   7     2.925028459437   122.43678861   183.46215631
 O     13   9   8     2.406124623526   120.76699029   148.35320025
 C     13   9   8     2.921729438505   118.26351529   328.54801314
 C     15  13   9     2.688502746741   122.68896909   327.91023953
 C     16  15  13     2.670309376474   120.33182122   183.08563799
 C     17  16  15     2.673352659937   120.21038484   359.75254628
 C     18  17  16     2.675658059032   119.92611278     0.77828057
 C     19  18  17     2.666147432359   119.91213624   359.83071739
 H      3   2   1     2.089364584114   109.25924675    64.17886675
 H      3   2   1     2.088628416962   110.25175252   304.44371611
 H      3   2   1     2.087388064507   110.91668059   183.85190447
 H      5   4   2     1.963780428651   102.25895144     4.20992260
 H      8   7   2     2.084638010527   119.14401609     0.74366458
 H     10   9   8     2.085915230864   119.02186989   181.24610459
 H     11  10   9     2.084714767434   120.01708291   179.16011025
 H     12  11  10     2.084823352549   119.71457205   180.02058756
 H     16  15  13     2.083835593732   119.82524658     1.99594396
 H     17  16  15     2.084542815759   119.78904442   179.64877810
 H     18  17  16     2.084764147314   120.02289813   180.37087531
 H     19  18  17     2.084539710209   120.04689200   179.63894452
 H     20  19  18     2.086105352445   120.51158846   179.34083695

---------------------
BASIS SET INFORMATION
---------------------
There are 3 groups of distinct atoms

 Group   1 Type H   : 3s contracted to 1s pattern {3}
 Group   2 Type C   : 6s3p contracted to 2s1p pattern {33/3}
 Group   3 Type O   : 6s3p contracted to 2s1p pattern {33/3}

Atom   0H    basis set group =>   1
Atom   1C    basis set group =>   2
Atom   2C    basis set group =>   2
Atom   3C    basis set group =>   2
Atom   4O    basis set group =>   3
Atom   5O    basis set group =>   3
Atom   6C    basis set group =>   2
Atom   7C    basis set group =>   2
Atom   8C    basis set group =>   2
Atom   9C    basis set group =>   2
Atom  10C    basis set group =>   2
Atom  11C    basis set group =>   2
Atom  12C    basis set group =>   2
Atom  13O    basis set group =>   3
Atom  14C    basis set group =>   2
Atom  15C    basis set group =>   2
Atom  16C    basis set group =>   2
Atom  17C    basis set group =>   2
Atom  18C    basis set group =>   2
Atom  19C    basis set group =>   2
Atom  20H    basis set group =>   1
Atom  21H    basis set group =>   1
Atom  22H    basis set group =>   1
Atom  23H    basis set group =>   1
Atom  24H    basis set group =>   1
Atom  25H    basis set group =>   1
Atom  26H    basis set group =>   1
Atom  27H    basis set group =>   1
Atom  28H    basis set group =>   1
Atom  29H    basis set group =>   1
Atom  30H    basis set group =>   1
Atom  31H    basis set group =>   1
Atom  32H    basis set group =>   1

-------------------------
BASIS SET IN INPUT FORMAT
-------------------------

 # Basis set for element : H 
 NewGTO H 
 S 3 
   1       3.4252509100      0.1543289707
   2       0.6239137300      0.5353281424
   3       0.1688554000      0.4446345420
  end;

 # Basis set for element : C 
 NewGTO C 
 S 3 
   1      71.6168370000      0.1543289700
   2      13.0450960000      0.5353281400
   3       3.5305122000      0.4446345400
 S 3 
   1       2.9412494000     -0.0999672301
   2       0.6834831000      0.3995128303
   3       0.2222899000      0.7001154705
 P 3 
   1       2.9412494000      0.1559162721
   2       0.6834831000      0.6076837282
   3       0.2222899000      0.3919573953
  end;

 # Basis set for element : O 
 NewGTO O 
 S 3 
   1     130.7093200000      0.1543289687
   2      23.8088610000      0.5353281356
   3       6.4436083000      0.4446345363
 S 3 
   1       5.0331513000     -0.0999672287
   2       1.1695961000      0.3995128246
   3       0.3803890000      0.7001154606
 P 3 
   1       5.0331513000      0.1559162685
   2       1.1695961000      0.6076837141
   3       0.3803890000      0.3919573862
  end;

---------------------------------
AUXILIARY/J BASIS SET INFORMATION
---------------------------------
There are 3 groups of distinct atoms

 Group   1 Type H   : 5s2p1d contracted to 3s1p1d pattern {311/2/1}
 Group   2 Type C   : 12s5p4d2f1g contracted to 6s4p3d1f1g pattern {711111/2111/211/2/1}
 Group   3 Type O   : 12s5p4d2f1g contracted to 6s4p3d1f1g pattern {711111/2111/211/2/1}

Atom   0H    basis set group =>   1
Atom   1C    basis set group =>   2
Atom   2C    basis set group =>   2
Atom   3C    basis set group =>   2
Atom   4O    basis set group =>   3
Atom   5O    basis set group =>   3
Atom   6C    basis set group =>   2
Atom   7C    basis set group =>   2
Atom   8C    basis set group =>   2
Atom   9C    basis set group =>   2
Atom  10C    basis set group =>   2
Atom  11C    basis set group =>   2
Atom  12C    basis set group =>   2
Atom  13O    basis set group =>   3
Atom  14C    basis set group =>   2
Atom  15C    basis set group =>   2
Atom  16C    basis set group =>   2
Atom  17C    basis set group =>   2
Atom  18C    basis set group =>   2
Atom  19C    basis set group =>   2
Atom  20H    basis set group =>   1
Atom  21H    basis set group =>   1
Atom  22H    basis set group =>   1
Atom  23H    basis set group =>   1
Atom  24H    basis set group =>   1
Atom  25H    basis set group =>   1
Atom  26H    basis set group =>   1
Atom  27H    basis set group =>   1
Atom  28H    basis set group =>   1
Atom  29H    basis set group =>   1
Atom  30H    basis set group =>   1
Atom  31H    basis set group =>   1
Atom  32H    basis set group =>   1

-------------------------------------
AUXILIARY/J BASIS SET IN INPUT FORMAT
-------------------------------------

 # Auxiliary/J basis set for element : H 
 NewAuxJGTO H 
 S 3 
   1      15.6752927000      0.1007184237
   2       3.6063578000      0.3404257499
   3       1.2080016000      0.6491996172
 S 1 
   1       0.4726794000      1.0000000000
 S 1 
   1       0.2018100000      1.0000000000
 P 2 
   1       2.0281365000      0.5596620919
   2       0.5358730000      0.5596620919
 D 1 
   1       2.2165124000      1.0000000000
  end;

 # Auxiliary/J basis set for element : C 
 NewAuxJGTO C 
 S 7 
   1    1861.0916331000      0.0134602335
   2     642.9939764000      0.0299160374
   3     235.1105725000      0.1008649584
   4      90.7028894000      0.2370970548
   5      36.7794552000      0.3924037254
   6      15.6046273000      0.3195862154
   7       6.8907294000      0.0530104441
 S 1 
   1       3.1478850000     -1.0000000000
 S 1 
   1       1.4777287000      1.0000000000
 S 1 
   1       0.7076466000      1.0000000000
 S 1 
   1       0.3430122000      1.0000000000
 S 1 
   1       0.1669453000      1.0000000000
 P 2 
   1      13.5472892000     -0.6769313712
   2       5.4669419000     -0.3779500978
 P 1 
   1       2.1751721000      1.0000000000
 P 1 
   1       0.8582194000      1.0000000000
 P 1 
   1       0.3376720000      1.0000000000
 D 2 
   1       5.9287253000     -0.3533329857
   2       1.9809209000     -0.7456525731
 D 1 
   1       0.8055417000     -1.0000000000
 D 1 
   1       0.3531244000     -1.0000000000
 F 2 
   1       1.6755626000      0.6311076882
   2       0.5997536000      0.4968166032
 G 1 
   1       1.0024600000     -1.0000000000
  end;

 # Auxiliary/J basis set for element : O 
 NewAuxJGTO O 
 S 7 
   1    2876.8216605000      0.0168151159
   2    1004.7443032000      0.0340137548
   3     369.7579954000      0.1194951309
   4     142.9442404000      0.2664627624
   5      57.8366425000      0.4202764046
   6      24.3864983000      0.2765077335
   7      10.6622662000      0.0057008815
 S 1 
   1       4.8070437000     -1.0000000000
 S 1 
   1       2.2210770000      1.0000000000
 S 1 
   1       1.0447795000      1.0000000000
 S 1 
   1       0.4968425000      1.0000000000
 S 1 
   1       0.2371384000      1.0000000000
 P 2 
   1      64.2613382000     -0.2731534179
   2      16.3006076000     -0.8168011598
 P 1 
   1       4.3550542000      1.0000000000
 P 1 
   1       1.2019554000      1.0000000000
 P 1 
   1       0.3354196000      1.0000000000
 D 2 
   1       9.2146611000     -0.4661230638
   2       2.8435251000     -0.6600908911
 D 1 
   1       0.9955759000     -1.0000000000
 D 1 
   1       0.3649441000     -1.0000000000
 F 2 
   1       2.6420115000      0.5931563945
   2       0.7345613000      0.5931563945
 G 1 
   1       1.3931000000     -1.0000000000
  end;


Checking for AutoStart:
The File: Dexketoprofen\Dexketoprofen_TPSS_STO-3G\Dexketoprofen_TPSS_STO-3G.orcainp.gbw exists
Trying to determine its content:
     ... Fine, the file contains calculation information
     ... Fine, the calculation information was read
     ... Fine, the file contains a basis set
     ... Fine, the basis set was read
     ... Fine, the file contains a geometry
     ... Fine, the geometry was read
     ... Fine, the file contains a set of orbitals
     ... Fine, the orbitals can be read
     => possible old guess file was deleted
     => GBW file was renamed to GES file
     => GES file is set as startup file
     => Guess is set to MORead
     ... now leaving AutoStart

------------------------------------------------------------------------------
                             ORCA STARTUP CALCULATIONS
                           -- RI-GTO INTEGRALS CHOSEN --
------------------------------------------------------------------------------
------------------------------------------------------------------------------
                   ___                                                        
                  /   \      - P O W E R E D   B Y -                         
                 /     \                                                     
                 |  |  |   _    _      __       _____    __    __             
                 |  |  |  | |  | |    /  \     |  _  \  |  |  /  |          
                  \  \/   | |  | |   /    \    | | | |  |  | /  /          
                 / \  \   | |__| |  /  /\  \   | |_| |  |  |/  /          
                |  |  |   |  __  | /  /__\  \  |    /   |      \           
                |  |  |   | |  | | |   __   |  |    \   |  |\   \          
                \     /   | |  | | |  |  |  |  | |\  \  |  | \   \       
                 \___/    |_|  |_| |__|  |__|  |_| \__\ |__|  \__/        
                                                                              
                      - O R C A' S   B I G   F R I E N D -                    
                                      &                                       
                       - I N T E G R A L  F E E D E R -                       
                                                                              
 v1 FN, 2020, v2 2021, v3 2022-2024                                           
------------------------------------------------------------------------------


----------------------
SHARK INTEGRAL PACKAGE
----------------------

Number of atoms                             ...     33
Number of basis functions                   ...    109
Number of shells                            ...     71
Maximum angular momentum                    ...      1
Integral batch strategy                     ... SHARK/LIBINT Hybrid
RI-J (if used) integral strategy            ... SPLIT-RIJ (Revised 2003 algorithm where possible)
Printlevel                                  ...      1
Contraction scheme used                     ... SEGMENTED contraction
Prescreening option                         ... SCHWARTZ
   Thresh                                   ... 1.000e-10
   Tcut                                     ... 1.000e-11
   Tpresel                                  ... 1.000e-11 
Coulomb Range Separation                    ... NOT USED
Exchange Range Separation                   ... NOT USED
Multipole approximations                    ... NOT USED
Finite Nucleus Model                        ... NOT USED
CABS basis                                  ... NOT available
Auxiliary Coulomb fitting basis             ... AVAILABLE
   # of basis functions in Aux-J            ...   1085
   # of shells in Aux-J                     ...    355
   Maximum angular momentum in Aux-J        ...      4
Auxiliary J/K fitting basis                 ... NOT available
Auxiliary Correlation fitting basis         ... NOT available
Auxiliary 'external' fitting basis          ... NOT available

Checking pre-screening integrals            ... done (  0.0 sec) Dimension = 71
Check shell pair data                       ... done (  0.0 sec)
Shell pair information
Shell pair cut-off parameter TPreSel        ...   1.0e-11
Total number of shell pairs                 ...      2556
Shell pairs after pre-screening             ...      1988
Total number of primitive shell pairs       ...     23004
Primitive shell pairs kept                  ...     11056
          la=0 lb=0:    983 shell pairs
          la=1 lb=0:    827 shell pairs
          la=1 lb=1:    178 shell pairs

Calculating one electron integrals          ... done (  0.0 sec)
Calculating RI/J V-Matrix + Cholesky decomp.... done (  0.0 sec)
Calculating Nuclear repulsion               ... done (  0.0 sec) ENN=   1289.348776023792 Eh

Diagonalization of the overlap matrix:
Smallest eigenvalue                        ... 1.832e-01
Time for diagonalization                   ...    0.000 sec
Threshold for overlap eigenvalues          ... 1.000e-07
Number of eigenvalues below threshold      ... 0
Time for construction of square roots      ...    0.001 sec
Total time needed                          ...    0.003 sec

-------------------
DFT GRID GENERATION
-------------------

General Integration Accuracy     IntAcc      ... 4.388
Radial Grid Type                 RadialGrid  ... OptM3 with GC (2021)
Angular Grid (max. ang.)         AngularGrid ... 4 (Lebedev-302)
Angular grid pruning method      GridPruning ... 4 (adaptive)
Weight generation scheme         WeightScheme... mBecke (2022)
Basis function cutoff            BFCut       ... 1.0000e-10
Integration weight cutoff        WCut        ... 1.0000e-14
Partially contracted basis set               ... off
Rotationally invariant grid construction     ... off
Angular grids for H and He will be reduced by one unit

Total number of grid points                  ...   158652
Total number of batches                      ...     2496
Average number of points per batch           ...       63
Average number of grid points per atom       ...     4808
Initializing property integral containers    ... done (  0.0 sec)

SHARK setup successfully completed in   0.9 seconds

Maximum memory used throughout the entire STARTUP-calculation: 55.1 MB
-------------------------------------------------------------------------------
                                 ORCA GUESS
                   Start orbitals & Density for SCF / CASSCF
-------------------------------------------------------------------------------

------------
SCF SETTINGS
------------
Hamiltonian:
 Density Functional     Method          .... DFT(GTOs)
 Exchange Functional    Exchange        .... TPSS
 Correlation Functional Correlation     .... TPSS
 LDA part of GGA corr.  LDAOpt          .... PW91-LDA
 Gradients option       PostSCFGGA      .... off
   NL short-range parameter             ....  5.000000
 RI-approximation to the Coulomb term is turned on
   Number of AuxJ basis functions       .... 1085


General Settings:
 Integral files         IntName         .... Dexketoprofen\Dexketoprofen_TPSS_STO-3G\Dexketoprofen_TPSS_STO-3G.orcainp
 Hartree-Fock type      HFTyp           .... RHF
 Total Charge           Charge          ....    0
 Multiplicity           Mult            ....    1
 Number of Electrons    NEL             ....  134
 Basis Dimension        Dim             ....  109
 Nuclear Repulsion      ENuc            ....   1289.3487760238 Eh

Convergence Acceleration:
 AO-DIIS                CNVDIIS         .... on
   Start iteration      DIISMaxIt       ....    12
   Startup error        DIISStart       ....  0.200000
   # of expansion vecs  DIISMaxEq       ....     5
   Bias factor          DIISBfac        ....   1.050
   Max. coefficient     DIISMaxC        ....  10.000
 MO-DIIS                CNVKDIIS        .... off
 Trust-Rad. Augm. Hess. CNVTRAH         .... auto
   Auto Start mean grad. ratio tolernc. ....  1.125000
   Auto Start start iteration           ....     1
   Auto Start num. interpolation iter.  ....    10
   Max. Number of Micro iterations      ....    24
   Max. Number of Macro iterations      .... Maxiter - #DIIS iter
   Number of Davidson start vectors     ....     2
   Converg. threshold    (grad. norm)   ....   5.000e-05
   Grad. Scal. Fac. for Micro threshold ....   0.100
   Minimum threshold for Micro iter.    ....   1.000e-02
   NR start threshold (gradient norm)   ....   1.000e-04
   Initial trust radius                 ....   0.400
   Minimum AH scaling param. (alpha)    ....   1.000
   Maximum AH scaling param. (alpha)    .... 1000.000
   Quad. conv. algorithm                .... NR
   White noise on init. David. guess    .... on
   Maximum white noise                  ....   0.010
   Pseudo random numbers                .... off
   Inactive MOs                         .... canonical
   Orbital update algorithm             .... Taylor
   Preconditioner                       .... Diag
   Full preconditioner red. dimension   ....   250
 SOSCF                  CNVSOSCF        .... on
   Start iteration      SOSCFMaxIt      ....   150
   Startup grad/error   SOSCFStart      ....  0.003300
   Hessian update       SOSCFHessUp     .... L-BFGS
 Level Shifting         CNVShift        .... on
   Level shift para.    LevelShift      ....    0.2500
   Turn off err/grad.   ShiftErr        ....    0.0010
 Zerner damping         CNVZerner       .... off
 Static damping         CNVDamp         .... on
   Fraction old density DampFac         ....    0.7000
   Max. Damping (<1)    DampMax         ....    0.9800
   Min. Damping (>=0)   DampMin         ....    0.0000
   Turn off err/grad.   DampErr         ....    0.1000

SCF Procedure:
 Maximum # iterations   MaxIter         ....   125
 SCF integral mode      SCFMode         .... Direct
   Integral package                     .... SHARK and LIBINT hybrid scheme
 Reset frequency        DirectResetFreq ....    20
 Integral Threshold     Thresh          ....  1.000e-10 Eh
 Primitive CutOff       TCut            ....  1.000e-11 Eh

Convergence Tolerance:
 Convergence Check Mode ConvCheckMode   .... Total+1el-Energy
 Convergence forced     ConvForced      .... 1
 Energy Change          TolE            ....  1.000e-06 Eh
 1-El. energy change                    ....  1.000e-03 Eh
 Orbital Gradient       TolG            ....  5.000e-05
 Orbital Rotation angle TolX            ....  5.000e-05
 DIIS Error             TolErr          ....  1.000e-06

---------------------
INITIAL GUESS: MOREAD
---------------------
Guess MOs are being read from file: Dexketoprofen\Dexketoprofen_TPSS_STO-3G\Dexketoprofen_TPSS_STO-3G.orcainp.ges
Input Geometry matches current geometry (good)
Input basis set matches current basis set (good)
Occupation numbers will be reassigned to an Aufbau configuration
MOs were renormalized
MOs were reorthogonalized (Cholesky)
                      ------------------
                      INITIAL GUESS DONE (   0.0 sec)
                      ------------------
----------------------
INITIAL GUESS ORBITALS
----------------------
                      0         1         2         3         4         5   
                 -18.69267 -18.65224 -18.62821  -9.89909  -9.89342  -9.85577
                   2.00000   2.00000   2.00000   2.00000   2.00000   2.00000
                  --------  --------  --------  --------  --------  --------
  0H   1s         0.000039 -0.000002  0.000032 -0.000118  0.000009 -0.008784
  1C   1s        -0.000035 -0.000000 -0.000022 -0.010263 -0.000014  0.990136
  1C   2s         0.000244  0.000001  0.000142 -0.006196 -0.000011  0.042113
  1C   1pz       -0.000100  0.000000  0.000301 -0.002468  0.000003 -0.000012
  1C   1px        0.000467  0.000000 -0.000197 -0.003591  0.000000 -0.000291
  1C   1py       -0.000118  0.000001  0.000290 -0.002261  0.000002 -0.000740
  2C   1s         0.000002  0.000000 -0.000011 -0.000368  0.000000 -0.020380
  2C   2s         0.000034 -0.000000  0.000057  0.000286  0.000001 -0.007666
  2C   1pz       -0.000037  0.000000  0.000071 -0.000070  0.000000  0.000057
  2C   1px       -0.000042 -0.000000 -0.000036 -0.000172  0.000000 -0.004290
  2C   1py       -0.000070 -0.000000  0.000090 -0.000172 -0.000000  0.003265
  3C   1s         0.000594 -0.000000  0.000676  0.991597 -0.000002  0.011669
  3C   2s        -0.004707 -0.000000 -0.007600  0.035813  0.000000 -0.005902
  3C   1pz        0.001243 -0.000000 -0.005341  0.000824 -0.000001  0.002637
  3C   1px       -0.004569  0.000000  0.000760  0.000029 -0.000000  0.003906
  3C   1py        0.001255 -0.000000 -0.004636  0.000570 -0.000000  0.002293
  4O   1s         0.993761 -0.000001 -0.000940  0.000631  0.000000 -0.000032
  4O   2s         0.027617  0.000000  0.000326 -0.005303 -0.000002  0.000294
  4O   1pz       -0.001431 -0.000000  0.000350 -0.001479  0.000001 -0.000175
  4O   1px       -0.003570 -0.000000 -0.000018  0.003181  0.000000 -0.000196
  4O   1py       -0.000957 -0.000000  0.000305 -0.001364  0.000001 -0.000132
  5O   1s         0.000856  0.000000  0.993814  0.000566 -0.000000 -0.000019
  5O   2s         0.000295  0.000000  0.027764 -0.007299  0.000000  0.000088
  5O   1pz       -0.000097 -0.000000 -0.004112  0.002355 -0.000000 -0.000093
  5O   1px        0.000541 -0.000000  0.000655 -0.000453  0.000000 -0.000341
  5O   1py       -0.000105 -0.000000 -0.003578  0.002068 -0.000000 -0.000075
  6C   1s        -0.000071 -0.000001  0.000006 -0.000348 -0.000116 -0.028051
  6C   2s         0.000392  0.000018  0.000001  0.000129 -0.000048 -0.008184
  6C   1pz        0.000135 -0.000007  0.000002  0.000096  0.000046 -0.005070
  6C   1px        0.000463  0.000000 -0.000074 -0.000003 -0.000023  0.001559
  6C   1py        0.000011 -0.000011 -0.000027 -0.000021  0.000026 -0.001551
  7C   1s        -0.000016 -0.000001 -0.000001  0.000075 -0.000037  0.000184
  7C   2s         0.000044 -0.000055  0.000003  0.000013  0.000237  0.000471
  7C   1pz        0.000044  0.000036  0.000006  0.000021  0.000035  0.000220
  7C   1px        0.000100 -0.000018  0.000009  0.000054  0.000009 -0.000069
  7C   1py       -0.000004 -0.000047  0.000002  0.000009 -0.000169  0.000222
  8C   1s         0.000000  0.000025 -0.000000  0.000002 -0.007622 -0.000327
  8C   2s        -0.000006 -0.000272  0.000000 -0.000000 -0.007096 -0.000055
  8C   1pz       -0.000011  0.000516  0.000000 -0.000002  0.001559 -0.000015
  8C   1px       -0.000006  0.000090 -0.000000 -0.000006 -0.000093  0.000005
  8C   1py        0.000000  0.000046  0.000000  0.000000  0.005099 -0.000061
  9C   1s         0.000000  0.000006 -0.000000  0.000003 -0.000225 -0.000100
  9C   2s        -0.000002  0.000008  0.000000  0.000001  0.000370  0.000012
  9C   1pz        0.000001  0.000132  0.000000  0.000002 -0.000024 -0.000020
  9C   1px        0.000003 -0.000088  0.000000 -0.000001 -0.000020  0.000006
  9C   1py       -0.000000 -0.000050  0.000000  0.000000 -0.000021 -0.000007
 10C   1s        -0.000000 -0.000001 -0.000000 -0.000012 -0.000138 -0.000318
 10C   2s        -0.000002  0.000007 -0.000000 -0.000026 -0.000111 -0.000079
 10C   1pz       -0.000004 -0.000014 -0.000000 -0.000012 -0.000034 -0.000062
 10C   1px       -0.000002  0.000011  0.000000  0.000018  0.000009  0.000019
 10C   1py       -0.000005 -0.000002  0.000001 -0.000007  0.000090  0.000035
 11C   1s        -0.000013  0.000000  0.000000  0.000024 -0.000042  0.000266
 11C   2s         0.000027  0.000000  0.000003  0.000091  0.000009  0.000490
 11C   1pz        0.000026 -0.000003  0.000006 -0.000055  0.000003  0.000211
 11C   1px        0.000075 -0.000001  0.000004 -0.000041 -0.000002 -0.000069
 11C   1py        0.000021  0.000003 -0.000017  0.000025  0.000022  0.000016
 12C   1s         0.000000 -0.000684 -0.000000  0.000002  0.991373  0.000009
 12C   2s        -0.000001  0.007393  0.000000  0.000000  0.037844 -0.000006
 12C   1pz       -0.000001 -0.006489 -0.000000  0.000000 -0.000544 -0.000001
 12C   1px       -0.000001 -0.001363 -0.000000  0.000000 -0.000128 -0.000000
 12C   1py       -0.000000 -0.001983  0.000000  0.000000 -0.000166 -0.000005
 13O   1s        -0.000001 -0.993848  0.000000  0.000000  0.000603  0.000000
 13O   2s        -0.000000 -0.027461 -0.000000 -0.000000 -0.007350 -0.000000
 13O   1pz       -0.000000 -0.004944 -0.000000 -0.000000 -0.003163 -0.000000
 13O   1px        0.000000 -0.001037  0.000000  0.000000 -0.000663 -0.000000
 13O   1py       -0.000000 -0.001512 -0.000000 -0.000000 -0.000966  0.000000
 14C   1s         0.000000  0.000025 -0.000000 -0.000000 -0.007268 -0.000003
 14C   2s        -0.000000 -0.000266  0.000000 -0.000000 -0.007093 -0.000000
 14C   1pz       -0.000001  0.000449 -0.000000 -0.000000  0.003907  0.000000
 14C   1px        0.000001  0.000113  0.000000  0.000000  0.001225  0.000001
 14C   1py        0.000001  0.000254  0.000000  0.000000 -0.003421  0.000000
 15C   1s         0.000004 -0.000001  0.000000 -0.000008 -0.000029 -0.000014
 15C   2s        -0.000037 -0.000056 -0.000001 -0.000007  0.000234 -0.000004
 15C   1pz       -0.000002 -0.000004 -0.000000 -0.000000 -0.000059  0.000000
 15C   1px       -0.000013  0.000026 -0.000000 -0.000002 -0.000011 -0.000001
 15C   1py       -0.000029  0.000056 -0.000000 -0.000005  0.000162 -0.000003
 16C   1s        -0.000000 -0.000001  0.000000  0.000000 -0.000100  0.000000
 16C   2s         0.000000  0.000019 -0.000000  0.000000 -0.000050 -0.000000
 16C   1pz        0.000001 -0.000011  0.000000  0.000000  0.000043  0.000000
 16C   1px        0.000001 -0.000004  0.000000  0.000000  0.000043  0.000000
 16C   1py        0.000001  0.000005  0.000000  0.000000  0.000001  0.000000
 17C   1s         0.000000  0.000000  0.000000 -0.000000 -0.000039 -0.000000
 17C   2s         0.000000  0.000000  0.000000  0.000000  0.000011  0.000000
 17C   1pz        0.000000 -0.000000  0.000000  0.000000  0.000013  0.000000
 17C   1px        0.000000  0.000000  0.000000  0.000000  0.000005  0.000000
 17C   1py       -0.000000 -0.000004  0.000000 -0.000000 -0.000015 -0.000000
 18C   1s         0.000000 -0.000001  0.000000 -0.000000 -0.000130 -0.000000
 18C   2s         0.000000  0.000006  0.000000  0.000000 -0.000112 -0.000000
 18C   1pz       -0.000000 -0.000007 -0.000000 -0.000000  0.000027 -0.000000
 18C   1px       -0.000000 -0.000015 -0.000000 -0.000000 -0.000012 -0.000000
 18C   1py       -0.000000 -0.000004 -0.000000 -0.000000 -0.000092 -0.000000
 19C   1s         0.000000  0.000006  0.000000 -0.000000 -0.000225 -0.000000
 19C   2s         0.000000  0.000006 -0.000000 -0.000000  0.000368  0.000000
 19C   1pz       -0.000000  0.000042 -0.000000 -0.000000 -0.000034  0.000000
 19C   1px       -0.000000  0.000126 -0.000000 -0.000000  0.000008 -0.000000
 19C   1py        0.000000  0.000099 -0.000000 -0.000000 -0.000005  0.000000
 20H   1s        -0.000037  0.000000 -0.000230 -0.000271 -0.000000  0.000298
 21H   1s        -0.000022 -0.000000  0.000005 -0.000189  0.000000  0.000305
 22H   1s         0.000010  0.000000 -0.000008 -0.000129  0.000000  0.000253
 23H   1s        -0.006240 -0.000001 -0.000131 -0.001235  0.000004 -0.000310
 24H   1s         0.000012  0.000016 -0.000001  0.000007 -0.000200  0.000024
 25H   1s         0.000000  0.000211 -0.000000  0.000000 -0.000383 -0.000010
 26H   1s         0.000000 -0.000006 -0.000001  0.000005 -0.000004 -0.000005
 27H   1s         0.000015 -0.000001  0.000021 -0.000178 -0.000011 -0.000254
 28H   1s         0.000079  0.000015  0.000001  0.000014 -0.000199  0.000008
 29H   1s        -0.000001 -0.000000 -0.000000 -0.000000 -0.000008 -0.000000
 30H   1s        -0.000000 -0.000001 -0.000000 -0.000000 -0.000010 -0.000000
 31H   1s        -0.000000 -0.000006 -0.000000 -0.000000 -0.000004 -0.000000
 32H   1s        -0.000000  0.000211 -0.000000 -0.000000 -0.000390 -0.000000
                      6         7         8         9        10        11   
                  -9.83978  -9.83634  -9.83395  -9.83353  -9.83302  -9.83269
                   2.00000   2.00000   2.00000   2.00000   2.00000   2.00000
                  --------  --------  --------  --------  --------  --------
  0H   1s         0.000156 -0.000024  0.000018  0.000059 -0.000050  0.000137
  1C   1s        -0.029286  0.000071  0.000009 -0.021995  0.000814 -0.001375
  1C   2s         0.005476 -0.000007 -0.000006  0.005846 -0.000077  0.000055
  1C   1pz       -0.004873 -0.000002 -0.000004 -0.000024  0.000066 -0.000194
  1C   1px        0.001427 -0.000003  0.000002 -0.004313  0.000014  0.000054
  1C   1py       -0.001530  0.000045 -0.000000  0.003254  0.000064  0.000027
  2C   1s         0.006310 -0.000034  0.000026 -0.990553  0.007397 -0.000647
  2C   2s         0.000279 -0.000006  0.000002 -0.043064  0.000319 -0.000025
  2C   1pz       -0.000167 -0.000003  0.000000 -0.000065  0.000046 -0.000008
  2C   1px        0.000146 -0.000001  0.000001  0.000410 -0.000023  0.000032
  2C   1py       -0.000139 -0.000001  0.000000 -0.000314  0.000007  0.000009
  3C   1s        -0.000740  0.000005 -0.000000 -0.000677 -0.000000  0.000051
  3C   2s         0.000044 -0.000003  0.000000  0.000030  0.000015 -0.000013
  3C   1pz       -0.000178  0.000000 -0.000000  0.000020  0.000014  0.000007
  3C   1px       -0.000047  0.000001 -0.000000 -0.000116 -0.000002 -0.000021
  3C   1py       -0.000087  0.000001  0.000000  0.000093  0.000000  0.000033
  4O   1s         0.000100  0.000004 -0.000000 -0.000004 -0.000016  0.000031
  4O   2s        -0.000756 -0.000025  0.000003  0.000023  0.000111 -0.000200
  4O   1pz        0.000381  0.000015 -0.000002  0.000032 -0.000060  0.000134
  4O   1px        0.000026  0.000003 -0.000000 -0.000047 -0.000016  0.000023
  4O   1py        0.000360  0.000012 -0.000001 -0.000000 -0.000058  0.000105
  5O   1s        -0.000010  0.000000 -0.000000  0.000014  0.000001  0.000001
  5O   2s         0.000080  0.000000  0.000000 -0.000112 -0.000008 -0.000009
  5O   1pz       -0.000024  0.000000 -0.000000  0.000013  0.000002  0.000007
  5O   1px       -0.000015  0.000000  0.000000  0.000030  0.000001 -0.000000
  5O   1py       -0.000048 -0.000000 -0.000000  0.000036  0.000006  0.000001
  6C   1s        -0.987726 -0.009546  0.000162 -0.005311  0.034391 -0.053256
  6C   2s        -0.042179  0.000875 -0.000002 -0.000258 -0.004092  0.006555
  6C   1pz        0.001768 -0.000286 -0.000003  0.000065  0.002964 -0.001437
  6C   1px       -0.000798  0.000077  0.000005 -0.000034 -0.000822  0.000402
  6C   1py        0.000691 -0.000656  0.000014 -0.000005 -0.003218 -0.005554
  7C   1s         0.051595 -0.100713 -0.004639  0.000524 -0.082950 -0.977264
  7C   2s         0.011023 -0.012896 -0.000158  0.000072 -0.003639 -0.039905
  7C   1pz        0.001118  0.005579  0.000156  0.000027  0.000050  0.000375
  7C   1px       -0.000397 -0.001585 -0.000081  0.000041 -0.000005 -0.000060
  7C   1py        0.005915  0.001654  0.000092  0.000031 -0.000066 -0.000700
  8C   1s        -0.003500  0.981352  0.004854  0.000096  0.025691 -0.099157
  8C   2s        -0.000966  0.042727  0.000410 -0.000006 -0.000925  0.004119
  8C   1pz       -0.000350  0.000283  0.000041 -0.000001  0.001610  0.005478
  8C   1px        0.000110 -0.000424  0.000031 -0.000008 -0.000443 -0.001587
  8C   1py       -0.000258  0.002140  0.000030 -0.000004 -0.001181  0.001577
  9C   1s         0.003161 -0.090414 -0.004856  0.000672  0.276703  0.041239
  9C   2s         0.000350 -0.012660 -0.000311  0.000051  0.017478  0.001312
  9C   1pz        0.000221 -0.004431 -0.000033  0.000006  0.001198  0.000259
  9C   1px       -0.000063  0.001192  0.000029 -0.000002 -0.000320 -0.000068
  9C   1py        0.000055  0.003899  0.000076  0.000015  0.004092 -0.000994
 10C   1s        -0.001192  0.006271  0.001091 -0.002279 -0.648628  0.111751
 10C   2s        -0.000882  0.001475  0.000083 -0.000170 -0.036113  0.004645
 10C   1pz       -0.000420 -0.000006 -0.000001 -0.000039 -0.004167  0.000439
 10C   1px        0.000119 -0.000002 -0.000004  0.000018  0.001192 -0.000125
 10C   1py       -0.000009 -0.000677 -0.000024 -0.000008  0.001104  0.000031
 11C   1s         0.051948 -0.005490 -0.000162  0.008544  0.688806 -0.022696
 11C   2s         0.010936 -0.000407 -0.000020  0.000452  0.034667 -0.001774
 11C   1pz        0.004137  0.000119  0.000004  0.000007 -0.004000  0.000786
 11C   1px       -0.001209 -0.000037 -0.000001 -0.000026  0.001147 -0.000229
 11C   1py       -0.004181  0.000202  0.000001  0.000023 -0.001986  0.000066
 12C   1s        -0.000155  0.008933  0.008647  0.000001  0.000248 -0.000973
 12C   2s         0.000079 -0.006554 -0.006649 -0.000000 -0.000127  0.000488
 12C   1pz        0.000062 -0.001244 -0.003672  0.000000 -0.000064  0.000054
 12C   1px       -0.000014  0.000228 -0.001237  0.000001  0.000017 -0.000001
 12C   1py        0.000059 -0.005167  0.003598 -0.000000 -0.000090  0.000411
 13O   1s        -0.000001 -0.000021 -0.000021 -0.000000 -0.000004 -0.000003
 13O   2s         0.000008  0.000227  0.000229  0.000000  0.000025  0.000011
 13O   1pz        0.000005  0.000093  0.000226  0.000000 -0.000006 -0.000004
 13O   1px        0.000004  0.000011  0.000055  0.000000  0.000006  0.000011
 13O   1py       -0.000003  0.000280 -0.000181  0.000000  0.000023  0.000003
 14C   1s         0.000504 -0.005925  0.977733  0.000036  0.001498 -0.005413
 14C   2s         0.000028 -0.000123  0.042842  0.000002  0.000065 -0.000179
 14C   1pz        0.000013  0.000034  0.001317  0.000000  0.000004  0.000018
 14C   1px       -0.000009 -0.000025  0.000766 -0.000000  0.000009  0.000050
 14C   1py        0.000013  0.000033 -0.001645 -0.000000 -0.000010  0.000082
 15C   1s         0.000397 -0.000136 -0.128449 -0.000002 -0.001316 -0.010971
 15C   2s         0.000047  0.000138 -0.014175  0.000000 -0.000092 -0.000717
 15C   1pz        0.000008  0.000088  0.004437  0.000000  0.000001 -0.000138
 15C   1px        0.000006  0.000101  0.003688  0.000001  0.000002 -0.000104
 15C   1py        0.000026 -0.000024  0.001528  0.000000 -0.000008 -0.000092
 16C   1s        -0.000019 -0.000397  0.008203 -0.000001  0.000140  0.001783
 16C   2s        -0.000005 -0.000074  0.001904 -0.000000  0.000021  0.000226
 16C   1pz        0.000001  0.000027 -0.000659  0.000000 -0.000006 -0.000072
 16C   1px        0.000000  0.000004 -0.000297 -0.000000 -0.000002 -0.000014
 16C   1py       -0.000003 -0.000030  0.000517 -0.000000  0.000007  0.000071
 17C   1s         0.000001  0.000086 -0.007817  0.000000 -0.000037 -0.000262
 17C   2s         0.000000  0.000009 -0.000667  0.000000 -0.000004 -0.000031
 17C   1pz       -0.000000 -0.000004  0.000185 -0.000000  0.000001  0.000002
 17C   1px       -0.000000 -0.000001  0.000062  0.000000 -0.000000 -0.000004
 17C   1py        0.000000  0.000006 -0.000209  0.000000 -0.000001 -0.000012
 18C   1s        -0.000000 -0.000001  0.006017  0.000000  0.000024  0.000002
 18C   2s         0.000000 -0.000009  0.001523  0.000000  0.000004 -0.000008
 18C   1pz       -0.000000  0.000000 -0.000366 -0.000000 -0.000001  0.000007
 18C   1px       -0.000000  0.000004 -0.000054 -0.000000  0.000000  0.000002
 18C   1py        0.000000 -0.000004  0.000593  0.000000  0.000001 -0.000004
 19C   1s        -0.000017 -0.000582 -0.093735 -0.000005 -0.000201  0.001270
 19C   2s        -0.000003 -0.000022 -0.012763 -0.000001 -0.000023  0.000125
 19C   1pz       -0.000002  0.000043 -0.000788 -0.000000 -0.000000 -0.000000
 19C   1px        0.000001 -0.000001 -0.002353 -0.000000 -0.000005  0.000028
 19C   1py       -0.000002 -0.000019 -0.005464 -0.000000 -0.000008  0.000047
 20H   1s         0.000112  0.000002 -0.000001  0.008706 -0.000087  0.000010
 21H   1s         0.000107  0.000003 -0.000000  0.008701 -0.000080  0.000023
 22H   1s         0.000019  0.000004 -0.000001  0.008719 -0.000036  0.000019
 23H   1s         0.002097  0.000060 -0.000007  0.000107 -0.000275  0.000499
 24H   1s        -0.000585  0.001005 -0.000308 -0.000003  0.000672  0.008420
 25H   1s         0.000017  0.000917  0.000028 -0.000006 -0.002542 -0.000247
 26H   1s         0.000097 -0.000144 -0.000010  0.000025  0.005743 -0.000883
 27H   1s        -0.000577  0.000009  0.000003 -0.000272 -0.006069  0.000307
 28H   1s        -0.000067 -0.000348  0.001241 -0.000002  0.000051  0.000638
 29H   1s         0.000001  0.000012 -0.000171  0.000000 -0.000003 -0.000030
 30H   1s        -0.000000  0.000000  0.000036 -0.000000  0.000000  0.000003
 31H   1s        -0.000000  0.000001 -0.000140 -0.000000 -0.000000  0.000001
 32H   1s         0.000000 -0.000011  0.000949  0.000000  0.000002 -0.000009
                     12        13        14        15        16        17   
                  -9.83248  -9.83189  -9.83111  -9.83085  -9.83011  -9.82929
                   2.00000   2.00000   2.00000   2.00000   2.00000   2.00000
                  --------  --------  --------  --------  --------  --------
  0H   1s        -0.000072  0.000048  0.000031  0.000007  0.000003 -0.000004
  1C   1s         0.000921 -0.000895  0.000012  0.000003  0.000003 -0.000003
  1C   2s        -0.000052  0.000110 -0.000008 -0.000002 -0.000001  0.000001
  1C   1pz        0.000091 -0.000132 -0.000008 -0.000002 -0.000001  0.000001
  1C   1px       -0.000010  0.000034  0.000001  0.000000 -0.000000 -0.000000
  1C   1py        0.000013 -0.000011  0.000001  0.000000  0.000000 -0.000000
  2C   1s         0.003978 -0.001591 -0.000004 -0.000001 -0.000001  0.000001
  2C   2s         0.000176 -0.000071  0.000000  0.000000  0.000000 -0.000000
  2C   1pz        0.000051 -0.000027  0.000000  0.000000 -0.000000  0.000000
  2C   1px       -0.000026  0.000017  0.000001  0.000000  0.000000 -0.000000
  2C   1py        0.000009 -0.000004  0.000001  0.000000  0.000000 -0.000000
  3C   1s         0.000012 -0.000009  0.000010  0.000002  0.000001 -0.000001
  3C   2s         0.000012 -0.000007 -0.000003 -0.000001 -0.000000  0.000000
  3C   1pz        0.000020 -0.000010  0.000003  0.000001  0.000000 -0.000000
  3C   1px       -0.000003 -0.000000 -0.000003 -0.000001 -0.000000  0.000000
  3C   1py       -0.000006  0.000007  0.000003  0.000001  0.000000 -0.000000
  4O   1s        -0.000018  0.000011  0.000005  0.000001  0.000000 -0.000001
  4O   2s         0.000120 -0.000077 -0.000032 -0.000008 -0.000002  0.000004
  4O   1pz       -0.000066  0.000045  0.000022  0.000005  0.000001 -0.000003
  4O   1px       -0.000018  0.000010  0.000004  0.000001  0.000000 -0.000000
  4O   1py       -0.000062  0.000040  0.000015  0.000004  0.000001 -0.000002
  5O   1s         0.000001 -0.000000  0.000000  0.000000  0.000000 -0.000000
  5O   2s        -0.000007  0.000002 -0.000001 -0.000000 -0.000000  0.000000
  5O   1pz        0.000000  0.000001  0.000000  0.000000  0.000000 -0.000000
  5O   1px        0.000001 -0.000001 -0.000000 -0.000000  0.000000  0.000000
  5O   1py        0.000007 -0.000003  0.000000  0.000000  0.000000 -0.000000
  6C   1s         0.032821 -0.022148 -0.000178 -0.000024  0.000057 -0.000016
  6C   2s        -0.004130  0.002320  0.000041  0.000007 -0.000007  0.000002
  6C   1pz        0.002599 -0.001463 -0.000014 -0.000003  0.000002  0.000000
  6C   1px       -0.000721  0.000404  0.000006  0.000002  0.000001 -0.000001
  6C   1py       -0.002514  0.000662 -0.000030 -0.000005  0.000007 -0.000002
  7C   1s         0.009440 -0.084830 -0.011663 -0.002304  0.000056  0.000493
  7C   2s         0.000551 -0.002967 -0.000201 -0.000029  0.000019 -0.000011
  7C   1pz       -0.000230 -0.000343  0.000183  0.000042  0.000024 -0.000020
  7C   1px        0.000067  0.000097 -0.000036 -0.000010 -0.000013  0.000007
  7C   1py       -0.000285  0.000011 -0.000036 -0.000009  0.000011  0.000000
  8C   1s        -0.056637 -0.072838 -0.000406 -0.000043  0.001191 -0.000069
  8C   2s         0.003166  0.003752  0.000121  0.000026  0.000005 -0.000022
  8C   1pz       -0.002718 -0.002445  0.000063  0.000009 -0.000016  0.000009
  8C   1px        0.000732  0.000656 -0.000004 -0.000003 -0.000024  0.000001
  8C   1py        0.002458  0.003013  0.000074  0.000018  0.000048 -0.000001
  9C   1s        -0.629440 -0.706762  0.000865  0.000113  0.000427 -0.000037
  9C   2s        -0.029585 -0.023830  0.000011 -0.000001 -0.000001  0.000004
  9C   1pz       -0.001098  0.000293 -0.000009 -0.000003 -0.000008  0.000002
  9C   1px        0.000278 -0.000113  0.000011  0.000003  0.000009 -0.000002
  9C   1py       -0.002858  0.003005  0.000016  0.000003  0.000009 -0.000003
 10C   1s         0.411148 -0.616334 -0.000031 -0.000021  0.000101  0.000005
 10C   2s         0.017318 -0.017139 -0.000007 -0.000001 -0.000000  0.000000
 10C   1pz       -0.003914  0.000252  0.000004  0.000001  0.000000 -0.000000
 10C   1px        0.001105 -0.000066 -0.000002 -0.000000 -0.000001  0.000000
 10C   1py       -0.005194 -0.003085  0.000004  0.000000  0.000003  0.000000
 11C   1s         0.642399 -0.302877 -0.000187 -0.000032  0.000042  0.000002
 11C   2s         0.022978 -0.007329 -0.000008 -0.000001  0.000001  0.000000
 11C   1pz        0.001948 -0.003154 -0.000002 -0.000001  0.000000  0.000000
 11C   1px       -0.000546  0.000890 -0.000002 -0.000000 -0.000000  0.000000
 11C   1py        0.000162 -0.000871 -0.000003 -0.000001  0.000000  0.000000
 12C   1s        -0.000599 -0.000992  0.001078  0.000096  0.001018  0.000136
 12C   2s         0.000217  0.000414 -0.000628 -0.000035 -0.000430 -0.000039
 12C   1pz        0.000049  0.000028 -0.000341 -0.000012 -0.000244  0.000018
 12C   1px       -0.000023 -0.000017 -0.000087  0.000005 -0.000102  0.000023
 12C   1py        0.000172  0.000348  0.000445  0.000041  0.000276  0.000063
 13O   1s         0.000007  0.000007  0.000002  0.000003 -0.000011 -0.000003
 13O   2s        -0.000055 -0.000065  0.000001 -0.000013  0.000082  0.000034
 13O   1pz       -0.000003 -0.000017  0.000007 -0.000005  0.000034  0.000017
 13O   1px       -0.000012 -0.000013  0.000012  0.000005 -0.000009 -0.000003
 13O   1py       -0.000026 -0.000021 -0.000002  0.000010 -0.000030  0.000006
 14C   1s        -0.002959 -0.002852  0.123742  0.011274  0.095147  0.008900
 14C   2s        -0.000108 -0.000088 -0.002803 -0.000469 -0.004487 -0.000704
 14C   1pz       -0.000008 -0.000011 -0.004247 -0.000962  0.000242  0.000710
 14C   1px       -0.000018 -0.000018 -0.003538 -0.001037  0.001776  0.001022
 14C   1py        0.000040  0.000053 -0.001379 -0.001011  0.004868  0.001528
 15C   1s         0.001200 -0.000075  0.933644  0.236191  0.054064 -0.139612
 15C   2s         0.000071 -0.000010  0.040501  0.008070  0.001439  0.000742
 15C   1pz       -0.000017 -0.000030  0.001373 -0.000638  0.000229  0.003013
 15C   1px       -0.000019 -0.000026  0.000373 -0.000248  0.000199  0.001153
 15C   1py       -0.000002 -0.000007 -0.002057  0.000583  0.000106 -0.003012
 16C   1s        -0.000079  0.000167 -0.230462  0.162239  0.032304 -0.752197
 16C   2s        -0.000012  0.000016 -0.019809  0.012980  0.002251 -0.030081
 16C   1pz        0.000003 -0.000005  0.004156  0.000161  0.000238  0.000223
 16C   1px        0.000002  0.000000  0.002070 -0.001982 -0.000220  0.000334
 16C   1py       -0.000003  0.000005 -0.002792 -0.006086 -0.001132  0.000511
 17C   1s         0.000056  0.000021  0.194353 -0.910291 -0.176349 -0.043814
 17C   2s         0.000004  0.000000  0.010964 -0.042114 -0.004246 -0.000223
 17C   1pz       -0.000001 -0.000001 -0.000309  0.001932 -0.001582  0.003006
 17C   1px       -0.000000 -0.000001  0.000313  0.000821 -0.001399  0.003811
 17C   1py        0.000001 -0.000001  0.001511 -0.001507 -0.000763  0.004815
 18C   1s        -0.000056 -0.000080 -0.045413  0.245258 -0.360073  0.574201
 18C   2s        -0.000009 -0.000011 -0.003443  0.019424 -0.021707  0.022206
 18C   1pz        0.000002  0.000003 -0.001089  0.003756  0.004332  0.001218
 18C   1px       -0.000000  0.000000 -0.000897  0.003378  0.001662  0.000770
 18C   1py       -0.000003 -0.000003 -0.000348  0.002018 -0.004155 -0.000316
 19C   1s         0.000521  0.000786 -0.040751 -0.100793  0.898843  0.256567
 19C   2s         0.000053  0.000065 -0.002022 -0.006809  0.040345  0.005652
 19C   1pz        0.000001  0.000000  0.000146 -0.001226  0.002339 -0.001978
 19C   1px        0.000012  0.000014 -0.000164 -0.000526  0.000995 -0.000578
 19C   1py        0.000018  0.000020 -0.000813  0.000990 -0.001803  0.002461
 20H   1s        -0.000059  0.000028 -0.000000 -0.000000 -0.000000  0.000000
 21H   1s        -0.000049  0.000021  0.000001  0.000000  0.000000 -0.000000
 22H   1s        -0.000033  0.000019 -0.000000 -0.000000 -0.000000  0.000000
 23H   1s        -0.000292  0.000189  0.000085  0.000020  0.000005 -0.000011
 24H   1s        -0.000111  0.000859 -0.000467 -0.000114 -0.000065  0.000061
 25H   1s         0.005423  0.006026 -0.000008 -0.000001 -0.000006 -0.000000
 26H   1s        -0.003538  0.005172  0.000001  0.000000 -0.000001 -0.000000
 27H   1s        -0.005418  0.002595  0.000003  0.000001 -0.000000 -0.000000
 28H   1s         0.000009  0.000065 -0.008083 -0.001931 -0.000498  0.001030
 29H   1s         0.000001 -0.000003  0.002162 -0.001522 -0.000331  0.006392
 30H   1s        -0.000000 -0.000000 -0.001807  0.007900  0.001374  0.000338
 31H   1s         0.000001  0.000001  0.000369 -0.002301  0.003201 -0.004841
 32H   1s        -0.000004 -0.000005  0.000265  0.000961 -0.007795 -0.002056
                     18        19        20        21        22        23   
                  -9.82906  -0.93063  -0.90016  -0.86298  -0.75575  -0.74688
                   2.00000   2.00000   2.00000   2.00000   2.00000   2.00000
                  --------  --------  --------  --------  --------  --------
  0H   1s        -0.000004 -0.006734  0.000089 -0.001793  0.029198  0.008698
  1C   1s        -0.000004  0.020917 -0.000197  0.004106 -0.052356 -0.015527
  1C   2s         0.000001 -0.051825  0.000525 -0.013064  0.142400  0.042382
  1C   1pz        0.000001 -0.009436 -0.000283 -0.010326 -0.032102 -0.008892
  1C   1px       -0.000000 -0.020551  0.000045  0.001091  0.006707  0.001681
  1C   1py       -0.000000 -0.008071 -0.000143 -0.008787 -0.010260 -0.002418
  2C   1s         0.000001  0.004736 -0.000038  0.004529 -0.023043 -0.007293
  2C   2s        -0.000000 -0.011402  0.000094 -0.010825  0.060695  0.019312
  2C   1pz        0.000000 -0.001452 -0.000024 -0.002690 -0.004361 -0.001277
  2C   1px       -0.000000 -0.005177  0.000029 -0.004167  0.013400  0.004086
  2C   1py       -0.000000  0.001330 -0.000031 -0.000513 -0.009882 -0.002970
  3C   1s        -0.000001  0.124432  0.000230  0.054422 -0.004275 -0.001452
  3C   2s         0.000000 -0.303917 -0.000568 -0.127585  0.011275  0.003906
  3C   1pz       -0.000000 -0.034870 -0.000207 -0.141127 -0.014946 -0.004748
  3C   1px        0.000000 -0.062982 -0.000100  0.085396 -0.022699 -0.006684
  3C   1py       -0.000000 -0.027568 -0.000167 -0.124393 -0.009815 -0.003144
  4O   1s        -0.000001  0.173459  0.000210 -0.144047  0.016116  0.004386
  4O   2s         0.000004 -0.617250 -0.000760  0.526789 -0.062131 -0.016970
  4O   1pz       -0.000003  0.035902 -0.000006 -0.061420 -0.000477 -0.000195
  4O   1px       -0.000000  0.128121  0.000153 -0.078081  0.004188  0.000925
  4O   1py       -0.000002  0.021810 -0.000010 -0.045690  0.000566  0.000170
  5O   1s        -0.000000  0.119537  0.000342  0.178821  0.005515  0.001810
  5O   2s         0.000000 -0.410736 -0.001185 -0.628995 -0.019770 -0.006534
  5O   1pz       -0.000000  0.092645  0.000246  0.117648  0.001748  0.000548
  5O   1px        0.000000 -0.021094 -0.000052 -0.012690 -0.004177 -0.001291
  5O   1py       -0.000000  0.080969  0.000215  0.102387  0.002007  0.000634
  6C   1s        -0.000038  0.007638 -0.001406 -0.004672 -0.113905 -0.030724
  6C   2s         0.000005 -0.017305  0.003496  0.010630  0.294091  0.079578
  6C   1pz       -0.000001 -0.006105 -0.000856  0.001412 -0.037263 -0.009477
  6C   1px       -0.000001 -0.002395  0.000288  0.003275  0.015357  0.003848
  6C   1py       -0.000005 -0.002749 -0.001237  0.000488 -0.014785 -0.000494
  7C   1s         0.000297  0.002006 -0.005169 -0.001985 -0.103002 -0.020192
  7C   2s        -0.000017 -0.004416  0.012965  0.004480  0.263633  0.051905
  7C   1pz       -0.000026 -0.000620 -0.005773  0.000360 -0.033928 -0.005381
  7C   1px        0.000010  0.000249  0.001593  0.000074  0.010806  0.000487
  7C   1py       -0.000006 -0.001987 -0.002519  0.001614  0.042891  0.017802
  8C   1s        -0.000623  0.000534 -0.023749 -0.000735 -0.095250 -0.015047
  8C   2s        -0.000008 -0.001309  0.057864  0.001817  0.244417  0.038292
  8C   1pz        0.000010 -0.000452 -0.012011  0.000542  0.017635 -0.001675
  8C   1px        0.000017  0.000099 -0.000013 -0.000088 -0.005708 -0.002327
  8C   1py       -0.000032 -0.000314 -0.023998  0.000527  0.049965  0.020673
  9C   1s        -0.000173  0.000325 -0.008688 -0.000528 -0.088022 -0.022379
  9C   2s         0.000005 -0.000761  0.020511  0.001267  0.224289  0.056964
  9C   1pz        0.000005 -0.000277  0.003502  0.000426  0.051136  0.011082
  9C   1px       -0.000007  0.000057 -0.001953 -0.000077 -0.013193 -0.003309
  9C   1py       -0.000006 -0.000098 -0.008974  0.000161  0.014113  0.006337
 10C   1s        -0.000029  0.000591 -0.001847 -0.000809 -0.088960 -0.025143
 10C   2s         0.000001 -0.001441  0.004701  0.001956  0.226065  0.064280
 10C   1pz       -0.000000 -0.000677  0.000132  0.000753  0.041072  0.011735
 10C   1px        0.000001  0.000176 -0.000012 -0.000142 -0.011456 -0.003307
 10C   1py       -0.000001 -0.000018 -0.002298 -0.000096 -0.035064 -0.008628
 11C   1s        -0.000014  0.002665 -0.000979 -0.002256 -0.097936 -0.028134
 11C   2s        -0.000000 -0.006125  0.002304  0.005340  0.250134  0.072270
 11C   1pz        0.000000 -0.002666 -0.000294  0.001617 -0.000975 -0.000458
 11C   1px        0.000000 -0.000138  0.000086  0.000411  0.001240  0.000373
 11C   1py        0.000000  0.001098 -0.000879 -0.001140 -0.056709 -0.015250
 12C   1s        -0.000611  0.000179 -0.126264  0.000082 -0.015263  0.011949
 12C   2s         0.000278 -0.000442  0.306325 -0.000178  0.044670 -0.034829
 12C   1pz        0.000146  0.000082 -0.144430  0.000329  0.042758 -0.044797
 12C   1px        0.000045  0.000023 -0.030406  0.000055  0.006937 -0.012741
 12C   1py       -0.000187 -0.000059 -0.043994  0.000251  0.033857  0.025543
 13O   1s         0.000002  0.000192 -0.210446  0.000344  0.027045 -0.019159
 13O   2s        -0.000024 -0.000666  0.737746 -0.001222 -0.100436  0.071436
 13O   1pz       -0.000011 -0.000177  0.182568 -0.000274 -0.014706  0.007061
 13O   1px       -0.000002 -0.000036  0.038286 -0.000059 -0.003244  0.001291
 13O   1py       -0.000001 -0.000062  0.055915 -0.000066 -0.000481  0.010002
 14C   1s        -0.038523  0.000043 -0.023549 -0.000009 -0.029660  0.103633
 14C   2s         0.001713 -0.000100  0.057368  0.000020  0.076365 -0.266690
 14C   1pz        0.000368  0.000019 -0.022075  0.000037  0.009200 -0.038612
 14C   1px       -0.000201  0.000007 -0.007137  0.000013  0.003914 -0.015538
 14C   1py       -0.001409 -0.000036  0.013608  0.000022 -0.000737  0.042058
 15C   1s        -0.125152  0.000036 -0.005024 -0.000047 -0.027417  0.102118
 15C   2s         0.000136 -0.000141  0.012602  0.000157  0.069942 -0.261651
 15C   1pz        0.002111  0.000002 -0.005094  0.000004 -0.005369  0.007530
 15C   1px        0.000662 -0.000007 -0.003817  0.000005 -0.008079  0.023437
 15C   1py       -0.002537 -0.000076 -0.000784  0.000082 -0.008599  0.054645
 16C   1s        -0.579499  0.000006 -0.001325 -0.000011 -0.021707  0.100381
 16C   2s        -0.021076 -0.000013  0.003250  0.000024  0.055227 -0.255967
 16C   1pz       -0.000090  0.000004 -0.001207 -0.000007 -0.010797  0.045517
 16C   1px       -0.000368  0.000003 -0.000663 -0.000004 -0.008113  0.037128
 16C   1py       -0.000871 -0.000005  0.000579  0.000009 -0.000418  0.011585
 17C   1s        -0.287569  0.000002 -0.000925 -0.000003 -0.019828  0.099688
 17C   2s        -0.001104 -0.000005  0.002171  0.000008  0.050365 -0.254627
 17C   1pz       -0.002605  0.000001 -0.000651 -0.000001 -0.008002  0.039811
 17C   1px       -0.001112  0.000000 -0.000268  0.000001 -0.002538  0.013691
 17C   1py        0.002163 -0.000002  0.000552  0.000004  0.009208 -0.042277
 18C   1s        -0.678643  0.000002 -0.001784 -0.000001 -0.019863  0.100038
 18C   2s        -0.023753 -0.000006  0.004551  0.000001  0.050352 -0.255113
 18C   1pz        0.000048  0.000001 -0.001136  0.000002  0.000591 -0.004789
 18C   1px        0.000292 -0.000000 -0.000177  0.000001  0.004392 -0.022383
 18C   1py        0.000774 -0.000003  0.001936  0.000000  0.011723 -0.055537
 19C   1s        -0.296358  0.000011 -0.008559  0.000005 -0.021771  0.101490
 19C   2s        -0.006137 -0.000026  0.020168 -0.000009  0.055690 -0.259589
 19C   1pz        0.002581  0.000001 -0.002961  0.000009  0.009949 -0.045484
 19C   1px        0.000934 -0.000004  0.002132  0.000002  0.008176 -0.035989
 19C   1py       -0.002685 -0.000013  0.009006 -0.000003  0.005571 -0.014482
 20H   1s         0.000000 -0.003760  0.000003 -0.005789  0.010397  0.003408
 21H   1s        -0.000000 -0.001191  0.000022 -0.001190  0.012668  0.004058
 22H   1s         0.000000 -0.001977  0.000018 -0.002279  0.013477  0.004346
 23H   1s        -0.000011 -0.104915 -0.000022  0.109535  0.000235  0.000019
 24H   1s         0.000072 -0.000706  0.002455  0.000783  0.049406  0.005161
 25H   1s         0.000003 -0.000083  0.007326  0.000147  0.038100  0.010802
 26H   1s         0.000000 -0.000145  0.000488  0.000247  0.039102  0.011482
 27H   1s         0.000000 -0.001541  0.000269  0.000891  0.045227  0.013537
 28H   1s         0.001079  0.000131  0.002382 -0.000048  0.016463 -0.046624
 29H   1s         0.005021 -0.000007  0.000358  0.000010  0.009567 -0.045535
 30H   1s         0.002327 -0.000000  0.000251  0.000001  0.008669 -0.045241
 31H   1s         0.005826 -0.000001  0.000469  0.000000  0.008665 -0.045321
 32H   1s         0.002520 -0.000007  0.007304 -0.000010  0.008819 -0.045831
                     24        25        26        27        28        29   
                  -0.69320  -0.66495  -0.64845  -0.64429  -0.63343  -0.56075
                   2.00000   2.00000   2.00000   2.00000   2.00000   2.00000
                  --------  --------  --------  --------  --------  --------
  0H   1s         0.093692 -0.019796  0.002739 -0.006582  0.050200 -0.115926
  1C   1s        -0.142592  0.019497 -0.000649 -0.000645 -0.065456  0.096230
  1C   2s         0.397438 -0.055023  0.001866  0.001665  0.187183 -0.297353
  1C   1pz       -0.024098 -0.004850  0.000496  0.000470  0.060230 -0.012868
  1C   1px       -0.011990  0.004269  0.000643 -0.004062 -0.061599 -0.106430
  1C   1py        0.003781  0.007625 -0.004524  0.016430  0.052688  0.083740
  2C   1s        -0.101518  0.013830  0.001916 -0.010838 -0.128438 -0.125219
  2C   2s         0.277599 -0.038417 -0.005419  0.030678  0.365046  0.374478
  2C   1pz       -0.004035 -0.002497  0.000725 -0.002028  0.011072 -0.005626
  2C   1px        0.040069 -0.003672 -0.000429  0.002053  0.013757 -0.067096
  2C   1py       -0.029774  0.005028 -0.000567  0.001435 -0.010085  0.053148
  3C   1s        -0.023252  0.003431  0.000099 -0.000907 -0.017129  0.048134
  3C   2s         0.066596 -0.009838 -0.000402  0.003026  0.052115 -0.151315
  3C   1pz       -0.054037  0.005415  0.000766 -0.003637 -0.030383  0.056410
  3C   1px       -0.063779  0.008268  0.000040 -0.001889 -0.036258  0.058923
  3C   1py       -0.041919  0.007444 -0.000493  0.000601 -0.026921  0.070073
  4O   1s         0.024394 -0.002009  0.000052  0.000178  0.001154 -0.027592
  4O   2s        -0.096168  0.008080 -0.000270 -0.000542 -0.003675  0.116320
  4O   1pz       -0.000266 -0.001027  0.000180 -0.000608  0.005345 -0.016544
  4O   1px       -0.004390  0.001163  0.000099 -0.000354 -0.007639  0.037894
  4O   1py        0.000331  0.000887 -0.000447  0.001222  0.002256 -0.008292
  5O   1s         0.023901 -0.003230 -0.000195  0.001288  0.019269 -0.019984
  5O   2s        -0.089429  0.012274  0.000772 -0.005040 -0.075246  0.080223
  5O   1pz        0.004657 -0.000617  0.000061 -0.000159  0.001157  0.006621
  5O   1px       -0.015908  0.002270  0.000096 -0.000893 -0.014098  0.009024
  5O   1py        0.005542 -0.000210 -0.000170  0.000649  0.002483  0.013195
  6C   1s        -0.086612 -0.001402 -0.001295  0.008469  0.101039  0.028081
  6C   2s         0.234187  0.003103  0.003457 -0.023033 -0.281647 -0.083825
  6C   1pz        0.065217 -0.040019  0.008110 -0.021688  0.069415 -0.126354
  6C   1px       -0.017750  0.011536 -0.001899  0.005122 -0.032922  0.014763
  6C   1py        0.028443  0.069913 -0.025720  0.085286  0.034660  0.031558
  7C   1s         0.000684  0.078481 -0.026187  0.086925  0.076866 -0.020514
  7C   2s        -0.000985 -0.214192  0.072245 -0.239600 -0.212305  0.059931
[...]
  0-1A  -> 18-1A    5.207872   42004.3   238.1   0.053315929   0.41787  -0.06507  -0.41046  -0.49513
  0-1A  -> 19-1A    5.437960   43860.1   228.0   0.015545442   0.11668  -0.06198  -0.16823  -0.29076
  0-1A  -> 20-1A    5.542050   44699.7   223.7   0.001205448   0.00888   0.00617   0.05896   0.07324
  0-1A  -> 21-1A    5.747128   46353.7   215.7   0.009022598   0.06408   0.00840  -0.18441   0.17321
  0-1A  -> 22-1A    5.887803   47488.3   210.6   0.000060219   0.00042   0.01261  -0.01607   0.00064
  0-1A  -> 23-1A    5.892378   47525.2   210.4   0.000104861   0.00073  -0.01316  -0.02062  -0.01132
  0-1A  -> 24-1A    5.958472   48058.3   208.1   0.001522290   0.01043  -0.04450   0.07230  -0.05675
  0-1A  -> 25-1A    6.006192   48443.2   206.4   0.000172694   0.00117  -0.01572   0.01226   0.02786
  0-1A  -> 26-1A    6.092323   49137.9   203.5   0.000737456   0.00494  -0.05309  -0.04505   0.00962
  0-1A  -> 27-1A    6.208122   50071.9   199.7   0.000324078   0.00213   0.01942   0.03781   0.01800
  0-1A  -> 28-1A    6.367479   51357.2   194.7   0.324918617   2.08281   0.28383  -1.35874   0.39507
  0-1A  -> 29-1A    6.413741   51730.3   193.3   0.013802079   0.08784   0.05494  -0.27942   0.08210
  0-1A  -> 30-1A    6.471253   52194.2   191.6   0.024600279   0.15516   0.09500  -0.34994   0.15389

----------------------------------------------------------------------------------------------------
                     ABSORPTION SPECTRUM VIA TRANSITION VELOCITY DIPOLE MOMENTS    
----------------------------------------------------------------------------------------------------
     Transition      Energy     Energy  Wavelength fosc(P2)      P2        PX        PY        PZ   
                      (eV)      (cm-1)    (nm)                 (au**2)    (au)      (au)      (au)  
----------------------------------------------------------------------------------------------------
  0-1A  ->  1-1A    2.631240   21222.4   471.2   0.000562685   0.00008  -0.00139  -0.00320   0.00833
  0-1A  ->  2-1A    2.878916   23220.0   430.7   0.000594821   0.00009   0.00192   0.00363   0.00881
  0-1A  ->  3-1A    3.603221   29061.9   344.1   0.000088630   0.00002   0.00316  -0.00225   0.00159
  0-1A  ->  4-1A    3.957256   31917.4   313.3   0.000240666   0.00005   0.00639   0.00100   0.00327
  0-1A  ->  5-1A    4.011396   32354.1   309.1   0.000267981   0.00006  -0.00181  -0.00645   0.00379
  0-1A  ->  6-1A    4.080289   32909.8   303.9   0.001649833   0.00037   0.01679  -0.00899  -0.00288
  0-1A  ->  7-1A    4.129919   33310.0   300.2   0.000678769   0.00015   0.00018   0.01037   0.00685
  0-1A  ->  8-1A    4.195959   33842.7   295.5   0.000843160   0.00020  -0.00079  -0.00839  -0.01114
  0-1A  ->  9-1A    4.240153   34199.1   292.4   0.000038416   0.00001  -0.00034   0.00295   0.00036
  0-1A  -> 10-1A    4.731206   38159.8   262.1   0.000362941   0.00009   0.00741  -0.00022   0.00630
  0-1A  -> 11-1A    4.763914   38423.6   260.3   0.000307089   0.00008  -0.00182   0.00819   0.00321
  0-1A  -> 12-1A    4.819528   38872.1   257.3   0.002353270   0.00063   0.01125  -0.02233   0.00021
  0-1A  -> 13-1A    4.894410   39476.1   253.3   0.029378634   0.00793  -0.01369   0.08796  -0.00150
  0-1A  -> 14-1A    4.922502   39702.7   251.9   0.000860840   0.00023  -0.00169   0.01509  -0.00175
  0-1A  -> 15-1A    4.978659   40155.6   249.0   0.000172086   0.00005   0.00270   0.00614  -0.00147
  0-1A  -> 16-1A    5.014481   40444.5   247.3   0.000186735   0.00005   0.00474  -0.00357  -0.00405
  0-1A  -> 17-1A    5.184178   41813.2   239.2   0.000064687   0.00002   0.00040   0.00014  -0.00428
  0-1A  -> 18-1A    5.207872   42004.3   238.1   0.008579468   0.00246  -0.01533   0.00419  -0.04702
  0-1A  -> 19-1A    5.437960   43860.1   228.0   0.001117461   0.00033  -0.00489   0.01433   0.01028
  0-1A  -> 20-1A    5.542050   44699.7   223.7   0.000661807   0.00020   0.00292   0.00272   0.01365
  0-1A  -> 21-1A    5.747128   46353.7   215.7   0.000689452   0.00022  -0.00363   0.01383   0.00374
  0-1A  -> 22-1A    5.887803   47488.3   210.6   0.000005964   0.00000  -0.00040  -0.00037  -0.00128
  0-1A  -> 23-1A    5.892378   47525.2   210.4   0.000031313   0.00001  -0.00224   0.00206  -0.00097
  0-1A  -> 24-1A    5.958472   48058.3   208.1   0.000214378   0.00007   0.00175  -0.00793  -0.00213
  0-1A  -> 25-1A    6.006192   48443.2   206.4   0.000046177   0.00002   0.00261  -0.00164   0.00241
  0-1A  -> 26-1A    6.092323   49137.9   203.5   0.000025222   0.00001  -0.00114  -0.00255  -0.00081
  0-1A  -> 27-1A    6.208122   50071.9   199.7   0.000021902   0.00001   0.00065   0.00185  -0.00191
  0-1A  -> 28-1A    6.367479   51357.2   194.7   0.054352585   0.01908  -0.03699   0.13215  -0.01568
  0-1A  -> 29-1A    6.413741   51730.3   193.3   0.002769513   0.00098  -0.00822   0.02984  -0.00458
  0-1A  -> 30-1A    6.471253   52194.2   191.6   0.003813884   0.00136  -0.00939   0.03479  -0.00789

------------------------------------------------------------------------------------------
                     CD SPECTRUM VIA TRANSITION ELECTRIC DIPOLE MOMENTS    
------------------------------------------------------------------------------------------
     Transition      Energy     Energy  Wavelength    R        MX        MY        MZ   
                      (eV)      (cm-1)    (nm)   (1e40*cgs)   (au)      (au)      (au)  
------------------------------------------------------------------------------------------
  0-1A  ->  1-1A    2.631240   21222.4   471.2   -5.56810   0.03419   0.01533   0.05925
  0-1A  ->  2-1A    2.878916   23220.0   430.7  -14.00257   0.05737   0.09761   0.32446
  0-1A  ->  3-1A    3.603221   29061.9   344.1   -0.05372  -0.01929   0.00530  -0.00058
  0-1A  ->  4-1A    3.957256   31917.4   313.3    0.82817  -0.05187   0.01498   0.04267
  0-1A  ->  5-1A    4.011396   32354.1   309.1   -3.06976   0.02633   0.03824   0.02106
  0-1A  ->  6-1A    4.080289   32909.8   303.9   -6.70363  -0.04020  -0.09893   0.07653
  0-1A  ->  7-1A    4.129919   33310.0   300.2    8.54723   0.06846   0.06332  -0.02617
  0-1A  ->  8-1A    4.195959   33842.7   295.5    8.35622  -0.07955  -0.05867   0.00745
  0-1A  ->  9-1A    4.240153   34199.1   292.4    2.19199   0.02150   0.04642  -0.01833
  0-1A  -> 10-1A    4.731206   38159.8   262.1    2.49187   0.00530  -0.02106  -0.00895
  0-1A  -> 11-1A    4.763914   38423.6   260.3    1.62723  -0.01749   0.03391   0.03297
  0-1A  -> 12-1A    4.819528   38872.1   257.3   11.59349  -0.00359  -0.04929   0.00619
  0-1A  -> 13-1A    4.894410   39476.1   253.3   22.57331   0.17779   0.08945   0.00078
  0-1A  -> 14-1A    4.922502   39702.7   251.9   -1.68161   0.09264  -0.09280  -0.12685
  0-1A  -> 15-1A    4.978659   40155.6   249.0   -2.30353  -0.06744   0.30255   0.33604
  0-1A  -> 16-1A    5.014481   40444.5   247.3   -2.00629  -0.01237   0.05875   0.04812
  0-1A  -> 17-1A    5.184178   41813.2   239.2   -0.00065   0.00885   0.00598  -0.00611
  0-1A  -> 18-1A    5.207872   42004.3   238.1  -21.92950   0.07707  -0.00108  -0.10318
  0-1A  -> 19-1A    5.437960   43860.1   228.0   11.85024   0.03271   0.06660   0.04094
  0-1A  -> 20-1A    5.542050   44699.7   223.7   11.84108  -0.08229  -0.08405  -0.26835
  0-1A  -> 21-1A    5.747128   46353.7   215.7   -0.57142  -0.00772  -0.02011  -0.01404
  0-1A  -> 22-1A    5.887803   47488.3   210.6   -0.06840  -0.00577  -0.01314   0.01060
  0-1A  -> 23-1A    5.892378   47525.2   210.4   -0.13247  -0.00708  -0.03250   0.04261
  0-1A  -> 24-1A    5.958472   48058.3   208.1    0.23584  -0.01666   0.00094   0.02308
  0-1A  -> 25-1A    6.006192   48443.2   206.4   -0.15115  -0.01435   0.00011   0.00336
  0-1A  -> 26-1A    6.092323   49137.9   203.5   -1.04457  -0.02663  -0.01410   0.01729
  0-1A  -> 27-1A    6.208122   50071.9   199.7   -0.38822   0.02312   0.01843  -0.01791
  0-1A  -> 28-1A    6.367479   51357.2   194.7   47.83298   0.33263   0.11964  -0.08430
  0-1A  -> 29-1A    6.413741   51730.3   193.3    1.17579   0.08824   0.02143  -0.01648
  0-1A  -> 30-1A    6.471253   52194.2   191.6    3.87946   0.07597   0.04663   0.00568

------------------------------------------------------------------------------------------
                     CD SPECTRUM VIA TRANSITION VELOCITY DIPOLE MOMENTS    
------------------------------------------------------------------------------------------
     Transition      Energy     Energy  Wavelength    R        MX        MY        MZ   
                      (eV)      (cm-1)    (nm)   (1e40*cgs)   (au)      (au)      (au)  
------------------------------------------------------------------------------------------
  0-1A  ->  1-1A    2.631240   21222.4   471.2    1.93581   0.03419   0.01533   0.05925
  0-1A  ->  2-1A    2.878916   23220.0   430.7   14.80077   0.05737   0.09761   0.32446
  0-1A  ->  3-1A    3.603221   29061.9   344.1   -0.26297  -0.01929   0.00530  -0.00058
  0-1A  ->  4-1A    3.957256   31917.4   313.3   -0.57332  -0.05187   0.01498   0.04267
  0-1A  ->  5-1A    4.011396   32354.1   309.1   -0.68572   0.02633   0.03824   0.02106
  0-1A  ->  6-1A    4.080289   32909.8   303.9   -0.01846  -0.04020  -0.09893   0.07653
  0-1A  ->  7-1A    4.129919   33310.0   300.2    1.52152   0.06846   0.06332  -0.02617
  0-1A  ->  8-1A    4.195959   33842.7   295.5    1.44309  -0.07955  -0.05867   0.00745
  0-1A  ->  9-1A    4.240153   34199.1   292.4    0.37247   0.02150   0.04642  -0.01833
  0-1A  -> 10-1A    4.731206   38159.8   262.1   -0.03386   0.00530  -0.02106  -0.00895
  0-1A  -> 11-1A    4.763914   38423.6   260.3    1.11844  -0.01749   0.03391   0.03297
  0-1A  -> 12-1A    4.819528   38872.1   257.3    2.82598  -0.00359  -0.04929   0.00619
  0-1A  -> 13-1A    4.894410   39476.1   253.3   14.23789   0.17779   0.08945   0.00078
  0-1A  -> 14-1A    4.922502   39702.7   251.9   -3.47899   0.09264  -0.09280  -0.12685
  0-1A  -> 15-1A    4.978659   40155.6   249.0    3.04225  -0.06744   0.30255   0.33604
  0-1A  -> 16-1A    5.014481   40444.5   247.3   -1.18478  -0.01237   0.05875   0.04812
  0-1A  -> 17-1A    5.184178   41813.2   239.2    0.07542   0.00885   0.00598  -0.00611
  0-1A  -> 18-1A    5.207872   42004.3   238.1    9.02937   0.07707  -0.00108  -0.10318
  0-1A  -> 19-1A    5.437960   43860.1   228.0    2.86723   0.03271   0.06660   0.04094
  0-1A  -> 20-1A    5.542050   44699.7   223.7   -9.56317  -0.08229  -0.08405  -0.26835
  0-1A  -> 21-1A    5.747128   46353.7   215.7   -0.67552  -0.00772  -0.02011  -0.01404
  0-1A  -> 22-1A    5.887803   47488.3   210.6   -0.01379  -0.00577  -0.01314   0.01060
  0-1A  -> 23-1A    5.892378   47525.2   210.4   -0.20090  -0.00708  -0.03250   0.04261
  0-1A  -> 24-1A    5.958472   48058.3   208.1   -0.18459  -0.01666   0.00094   0.02308
  0-1A  -> 25-1A    6.006192   48443.2   206.4   -0.06306  -0.01435   0.00011   0.00336
  0-1A  -> 26-1A    6.092323   49137.9   203.5    0.11009  -0.02663  -0.01410   0.01729
  0-1A  -> 27-1A    6.208122   50071.9   199.7    0.17221   0.02312   0.01843  -0.01791
  0-1A  -> 28-1A    6.367479   51357.2   194.7    9.73123   0.33263   0.11964  -0.08430
  0-1A  -> 29-1A    6.413741   51730.3   193.3   -0.02009   0.08824   0.02143  -0.01648
  0-1A  -> 30-1A    6.471253   52194.2   191.6    1.71339   0.07597   0.04663   0.00568

Total run time:       28.588 sec

           *** ORCA-CIS/TD-DFT FINISHED WITHOUT ERROR ***
-----------------------
CIS/TD-DFT TOTAL ENERGY
-----------------------

    E(SCF)  =   -833.471326810 Eh
    DE(CIS) =      0.096696285 Eh (Root  1)
    ----------------------------- ---------
    E(tot)  =   -833.374630525 Eh


Maximum memory used throughout the entire CIS-calculation: 94.9 MB
=> NOW LEAVING ORCA_CIS

-------------------------   --------------------
FINAL SINGLE POINT ENERGY      -833.374630525088
-------------------------   --------------------


------------------------------------------------------------------------------
                              ORCA PROPERTY CALCULATIONS
------------------------------------------------------------------------------

GBWName                                 ... Dexketoprofen\Dexketoprofen_TPSS_STO-3G\Dexketoprofen_TPSS_STO-3G.orcainp.gbw
Number of atoms                         ...     33
Number of basis functions               ...    109
Max core memory                         ...   1024 MB

Electric properties:
Dipole moment                           ... YES
Quadrupole moment                       ...  NO
Static polarizability (Dipole/Dipole)   ...  NO
Static polarizability (Dipole/Quad.)    ...  NO
Static polarizability (Quad./Quad.)     ...  NO
Static polarizability (Velocity)        ...  NO

Atomic electric properties:
Dipole moment                           ...  NO
Quadrupole moment                       ...  NO
Static polarizability                   ...  NO

Choice of electric origin               ... Center of mass
Position of electric origin             ...     5.520226    -4.507459    -3.020649

General magnetic properties:
Magnetizability                         ...  NO

EPR properties:
g-Tensor (aka g-matrix)                 ...  NO
Zero-Field splitting spin-orbit         ...  NO
Zero-field splitting spin-spin          ...  NO
Hyperfine couplings                     ...  NO (   0 nuclei)
Quadrupole couplings                    ...  NO (   0 nuclei)
Contact density                         ...  NO (   0 nuclei)

NMR properties:
Chemical shifts                         ...  NO (   0 nuclei)
Spin-rotation constants                 ...  NO (   0 nuclei)
Spin-spin couplings                     ...  NO (   0 nuclei,    0 pairs)

Choice of magnetic origin               ... GIAO
Position of magnetic origin             ...     0.000000     0.000000     0.000000

Properties with geometric perturbations:
SCF Hessian                             ...  NO
IR spectrum                             ...  NO
VCD spectrum                            ...  NO
X-ray spectroscopy properties:
SCF XES/XAS/RIXS spectra                ...  NO


-------------
DIPOLE MOMENT
-------------

Method             : SCF
Type of density    : Electron Density
Multiplicity       :   1
Irrep              :   0
Energy             :  -833.4713268097746095 Eh
Relativity type    : 
Basis              : AO
                                X                 Y                 Z
Electronic contribution:      4.242722209      -1.840115425      -3.487357137
Nuclear contribution   :     -4.370896890       1.235548958       3.275170772
                        -----------------------------------------
Total Dipole Moment    :     -0.128174681      -0.604566468      -0.212186364
                        -----------------------------------------
Magnitude (a.u.)       :      0.653415959
Magnitude (Debye)      :      1.660851378



--------------------
Rotational spectrum 
--------------------
 
Rotational constants in cm-1:             0.019181             0.007109             0.005782 
Rotational constants in MHz :           575.029572           213.113021           173.326518 

Dipole components along the rotational axes: 
x,y,z [a.u.] :    -0.622731    -0.068006     0.185834 
x,y,z [Debye]:    -1.582855    -0.172859     0.472352 

 

Dipole moment calculation done in   0.0 sec 

Maximum memory used throughout the entire PROP-calculation: 8.0 MB

--------------------------------
SUGGESTED CITATIONS FOR THIS RUN
--------------------------------

Below you find a list of papers that are relevant to this ORCA run
We neither can nor want to force you to cite these papers, but we appreciate if you do
You receive ORCA, which is the product of decades of hard work by many enthusiastic individuals, for free
The only thing we kindly ask in return is that you cite our papers,
We deeply appreciate it, if you show your appreciation for ORCA by not just citing the generic ORCA reference.

Please note that relegating all ORCA citations to the supporting information does *not* help us.
SI sections are not indexed - citations you put there will not count into any citation statistics
But we need these citations in order to attract the funding resources that allow us to do what we are doing

Therefore, if you are a happy ORCA user, please consider citing a few of the papers listed below in the main body of your paper

In addition to the list printed below, the program has created the file Dexketoprofen\Dexketoprofen_TPSS_STO-3G\Dexketoprofen_TPSS_STO-3G.orcainp.bibtex that contains the list in bibtex format
You can import this file easily into all common literature databanks and citation aid programs


List of essential papers. We consider these as the minimum necessary citations

  1. Neese,F.
     Software update: the ORCA program system, version 5.0
     WIRES Comput. Molec. Sci., 2022 12(1)e1606
     doi.org/10.1002/wcms.1606

List of papers to cite with high priority. The work reported in these papers was absolutely
necessary for this run to complete.
Our perspective: the developers of density functionals and basis sets usually get cited in chemistry papers
Good! But without the algorithms to do something with them, the functionals or basis sets would not do anything.
Hence, in our opinion, the algorithm design and method developments papers are equally worthy of getting cited

  1. Neese,F.; Olbrich,G.
     Efficient use of the resolution of the identity approximation in time-dependent density functional calculations with hybrid density functionals
     Chem. Phys. Lett., 2002 362 170-178
     doi.org/10.1016/s0009-2614(02)01053-9
  2. Neese,F.
     An improvement of the resolution of the identity approximation for the formation of the Coulomb matrix
     J. Comp. Chem., 2003 24(14)1740-1747
     doi.org/10.1002/jcc.10318
  3. Garcia-Rates,M.; Neese,F.
     Effect of the Solute Cavity on the Solvation Energy and its Derivatives within the Framework of the Gaussian Charge Scheme
     J. Comput. Chem., 2020 41 922-939
     doi.org/10.1002/jcc.26139
  4. Neese,F.
     The SHARK Integral Generation and Digestion System
     J. Comp. Chem., 2022  1-16
     doi.org/10.1002/jcc.26942

List of suggested additional citations. These are papers that are important in the 'surrounding' of 
of this run, or papers that preceded the highly important papers. If you like your results we are grateful for a citation.

  1. Neese,F.
     The ORCA program system
     WIRES Comput. Molec. Sci., 2012 2(1)73-78
     doi.org/10.1002/wcms.81
  2. Neese,F.
     Software update: the ORCA program system, version 4.0
     WIRES Comput. Molec. Sci., 2018 8(1)1-6
     doi.org/10.1002/wcms.1327
  3. Neese,F.; Wennmohs,F.; Becker,U.; Riplinger,C.
     The ORCA quantum chemistry program package
     J. Chem. Phys., 2020 152 Art. No. L224108
     doi.org/10.1063/5.0004608

List of optional additional citations

  1. Neese,F.
     Approximate second-order SCF convergence for spin unrestricted wavefunctions
     Chem. Phys. Lett., 2000 325(1-3)93-98
     doi.org/10.1016/s0009-2614(00)00662-x

Timings for individual modules:

Sum of individual times          ...       32.649 sec (=   0.544 min)
Startup calculation              ...        0.917 sec (=   0.015 min)   2.8 %
SCF iterations                   ...        2.957 sec (=   0.049 min)   9.1 %
Property integrals               ...        0.067 sec (=   0.001 min)   0.2 %
Property calculations            ...        0.077 sec (=   0.001 min)   0.2 %
CIS module                       ...       28.631 sec (=   0.477 min)  87.7 %
                             ****ORCA TERMINATED NORMALLY****
TOTAL RUN TIME: 0 days 0 hours 0 minutes 32 seconds 771 msec
