
                                 *****************
                                 * O   R   C   A *
                                 *****************

                                            #,                                       
                                            ###                                      
                                            ####                                     
                                            #####                                    
                                            ######                                   
                                           ########,                                 
                                     ,,################,,,,,                         
                               ,,#################################,,                 
                          ,,##########################################,,             
                       ,#########################################, ''#####,          
                    ,#############################################,,   '####,        
                  ,##################################################,,,,####,       
                ,###########''''           ''''###############################       
              ,#####''   ,,,,##########,,,,          '''####'''          '####       
            ,##' ,,,,###########################,,,                        '##       
           ' ,,###''''                  '''############,,,                           
         ,,##''                                '''############,,,,        ,,,,,,###''
      ,#''                                            '''#######################'''  
     '                                                          ''''####''''         
             ,#######,   #######,   ,#######,      ##                                
            ,#'     '#,  ##    ##  ,#'     '#,    #''#        ,####,   ,####,        
            ##       ##  ##   ,#'  ##            #'  '#       #'       #'  '#        
            ##       ##  #######   ##           ,######,      #####,   #    #        
            '#,     ,#'  ##    ##  '#,     ,#' ,#      #,     #,   #   #,  ,#        
             '#######'   ##     ##  '#######'  #'      '#     '####' # '####'        



                #########################################################
                #                        -***-                          #
                #          Department of theory and spectroscopy        #
                #                                                       #
                #                      Frank Neese                      #
                #                                                       #
                #     Directorship, Architecture, Infrastructure        #
                #                    SHARK, DRIVERS                     #
                #        Core code/Algorithms in most modules           #
                #                                                       #
                #        Max Planck Institute fuer Kohlenforschung      #
                #                Kaiser Wilhelm Platz 1                 #
                #                 D-45470 Muelheim/Ruhr                 #
                #                      Germany                          #
                #                                                       #
                #                  All rights reserved                  #
                #                        -***-                          #
                #########################################################


                         Program Version 6.0.0  -   RELEASE   -


 With contributions from (in alphabetic order):
   Daniel Aravena         : Magnetic Suceptibility
   Michael Atanasov       : Ab Initio Ligand Field Theory (pilot matlab implementation)
   Alexander A. Auer      : GIAO ZORA, VPT2 properties, NMR spectrum
   Ute Becker             : All parallelization in ORCA, NUMFREQ, NUMCALC
   Giovanni Bistoni       : ED, misc. LED, open-shell LED, HFLD
   Martin Brehm           : Molecular dynamics
   Dmytro Bykov           : pre 5.0 version of the SCF Hessian
   Marcos Casanova-Páez   : Triplet and SCS-CIS(D). UHF-(DLPNO)-IP/EA/STEOM-CCSD. UHF-CVS-IP/STEOM-CCSD
   Vijay G. Chilkuri      : MRCI spin determinant printing, contributions to CSF-ICE
   Pauline Colinet        : FMM embedding
   Dipayan Datta          : RHF DLPNO-CCSD density
   Achintya Kumar Dutta   : EOM-CC, STEOM-CC
   Nicolas Foglia         : Exact transition moments, OPA infrastructure, MCD improvements
   Dmitry Ganyushin       : Spin-Orbit,Spin-Spin,Magnetic field MRCI
   Miquel Garcia          : C-PCM and meta-GGA Hessian, CCSD/C-PCM, Gaussian charge scheme
   Tiago L. C. Gouveia    : GS-ROHF, GS-ROCIS
   Yang Guo               : DLPNO-NEVPT2, F12-NEVPT2, CIM, IAO-localization
   Andreas Hansen         : Spin unrestricted coupled pair/coupled cluster methods
   Ingolf Harden          : AUTO-CI MPn and infrastructure 
   Benjamin Helmich-Paris : MC-RPA, TRAH-(SCF,CASSCF), AVAS, COSX integrals, SCF dyn. polar.
   Lee Huntington         : MR-EOM, pCC
   Robert Izsak           : Overlap fitted RIJCOSX, COSX-SCS-MP3, EOM
   Riya Kayal             : Wick's Theorem for AUTO-CI, AUTO-CI UHF-CCSDT
   Emily Kempfer          : AUTO-CI, RHF CISDT and CCSDT
   Christian Kollmar      : KDIIS, OOCD, Brueckner-CCSD(T), CCSD density, CASPT2, CASPT2-K, improved NEVPT2
   Axel Koslowski         : Symmetry handling
   Simone Kossmann        : Meta GGA functionals, TD-DFT gradient, OOMP2, (MP2 Hessian; deprecated post 5.0)
   Lucas Lang             : DCDCAS
   Marvin Lechner         : AUTO-CI (C++ implementation), FIC-MRCC
   Spencer Leger          : CASSCF response
   Dagmar Lenk            : GEPOL surface, SMD, ORCA-2-JSON
   Dimitrios Liakos       : Extrapolation schemes; Compound Job, initial MDCI parallelization
   Dimitrios Manganas     : Further ROCIS development; embedding schemes. LFT, Crystal Embedding
   Dimitrios Pantazis     : SARC Basis sets
   Anastasios Papadopoulos: AUTO-CI, single reference methods and gradients
   Taras Petrenko         : pre 6.0 DFT Hessian and TD-DFT gradient, (ASA, deprecated), ECA, 1-Electron XAS/XES, NRVS
   Peter Pinski           : DLPNO-MP2, DLPNO-MP2 Gradient
   Christoph Reimann      : Effective Core Potentials
   Marius Retegan         : Local ZFS, SOC
   Christoph Riplinger    : Optimizer, TS searches, QM/MM, DLPNO-CCSD(T), (RO)-DLPNO pert. Triples
   Michael Roemelt        : Original ROCIS implementation
   Masaaki Saitow         : Open-shell DLPNO-CCSD energy and density
   Barbara Sandhoefer     : DKH picture change effects
   Kantharuban Sivalingam : CASSCF convergence/infrastructure, NEVPT2 and variants, FIC-MRCI
   Bernardo de Souza      : ESD, SOC TD-DFT
   Georgi Stoychev        : AutoAux, RI-MP2 NMR, DLPNO-MP2 response, X2C
   Van Anh Tran           : RI-MP2 g-tensors
   Willem Van den Heuvel  : Paramagnetic NMR
   Zikuan Wang            : NOTCH, Electric field optimization 
   Frank Wennmohs         : Technical directorship and infrastructure
   Hang Xu                : AUTO-CI-Response properties 


 We gratefully acknowledge several colleagues who have allowed us to
 interface, adapt or use parts of their codes:
   Stefan Grimme, W. Hujo, H. Kruse, P. Pracht,  : VdW corrections, initial TS optimization,
                  C. Bannwarth, S. Ehlert,         DFT functionals, gCP, sTDA/sTD-DF
                  L. Wittmann, M. Mueller
   Ed Valeev, F. Pavosevic, A. Kumar             : LibInt (2-el integral package), F12 methods
   Garnet Chan, S. Sharma, J. Yang, R. Olivares  : DMRG
   Ulf Ekstrom                                   : XCFun DFT Library
   Mihaly Kallay                                 : mrcc  (arbitrary order and MRCC methods)
   Frank Weinhold                                : gennbo (NPA and NBO analysis)
   Simon Mueller                                 : openCOSMO-RS
   Christopher J. Cramer and Donald G. Truhlar   : smd solvation model
   Lars Goerigk                                  : TD-DFT with DH, B97 family of functionals
   V. Asgeirsson, H. Jonsson                     : NEB implementation
   FAccTs GmbH                                   : IRC, NEB, NEB-TS, DLPNO-Multilevel, CI-OPT
                                                   MM, QMMM, 2- and 3-layer-ONIOM, Crystal-QMMM,
                                                   LR-CPCM, SF, NACMEs, symmetry and pop. for TD-DFT,
                                                   nearIR, NL-DFT gradient (VV10), updates on ESD,
                                                   ML-optimized integration grids, MBIS, APM,
                                                   GOAT, DOCKER, SOLVATOR, interface openCOSMO-RS
   S Lehtola, MJT Oliveira, MAL Marques          : LibXC Library
   Liviu Ungur et al                             : ANISO software


 Your calculation uses the libint2 library for the computation of 2-el integrals
 For citations please refer to: http://libint.valeyev.net

 Your ORCA version has been built with support for libXC version: 6.2.2
 For citations please refer to: https://libxc.gitlab.io

 This ORCA versions uses:
   CBLAS   interface :  Fast vector & matrix operations
   LAPACKE interface :  Fast linear algebra routines
   Shared memory     :  Shared parallel matrices


Warning: RI is on but no J-basis has been assigned. Assigning Def2/J (nothing to worry about!)
================================================================================

----- Orbital basis set information -----
Your calculation utilizes the basis: 6-311+G**
   H, Li - Ne  : R. Krishnan, J. S. Binkley, R. Seeger and J. A. Pople, J. Chem. Phys. 72, 650 (1980).
   Na - Ar     : A. D. McLean and G. S. Chandler J. Chem. Phys. 72, 5639, (1980).
   K  - Ca     : J.-P. Blaudeau, M. P. McGrath, L. A. Curtiss and L. Radom, J. Chem. Phys. 107, 5016 (1997).
   Ga - Kr     : L. A. Curtiss, M. P. McGrath, J.-P. Blandeau, N. E. Davis, R. C. Binning and L. Radom, J. Chem. Phys. 103, 6104 (1995).
   Pol./Diff.
   H, Li - Cl  : T. Clark, J. Chandrasekhar and P. v. R. Schleyer, J. Comp. Chem. 4, 294 (1983).
   H - Ne      : M. J. Frisch, J. A. Pople and J. S. Binkley, J. Chem. Phys. 80, 3265 (1984).

----- AuxJ basis set information -----
Your calculation utilizes the auxiliary basis: def2/J
   F. Weigend, Phys. Chem. Chem. Phys. 8, 1057 (2006).

================================================================================
                                        WARNINGS
                       Please study these warnings very carefully!
================================================================================


WARNING: Geometry Optimization
  ===> : Switching off AutoStart
         For restart on a previous wavefunction, please use MOREAD

================================================================================
                                       INPUT FILE
================================================================================
NAME = Dexketoprofen\Dexketoprofen_B3LYP_6-311+G\Dexketoprofen_B3LYP_6-311+G.orcainp
|  1> # ORCA input file
|  2> # 
|  3> !B3LYP 6-311+G** Opt CPCM(WATER)
|  4> * xyz 0 1
|  5>    H        1.09662        -0.20425         0.32676
|  6>    C        2.13797        -0.11108        -0.01052
|  7>    C        2.12649         0.62804        -1.35353
|  8>    C        2.82666         0.75101         1.05036
|  9>    O        3.42837         0.07530         2.05584
| 10>    O        2.79236         1.97380         1.05318
| 11>    C        2.71761        -1.51246        -0.17817
| 12>    C        1.93400        -2.64563         0.11349
| 13>    C        2.46764        -3.93628        -0.02637
| 14>    C        3.77114        -4.09904        -0.50532
| 15>    C        4.55448        -2.98406        -0.79480
| 16>    C        4.03583        -1.70072        -0.62371
| 17>    C        1.68733        -5.16375         0.28429
| 18>    O        1.87299        -6.17087        -0.39524
| 19>    C        0.70964        -5.21669         1.40278
| 20>    C        0.85415        -4.43205         2.55380
| 21>    C       -0.08941        -4.51477         3.57938
| 22>    C       -1.16344        -5.39791         3.47203
| 23>    C       -1.29213        -6.20776         2.34434
| 24>    C       -0.35568        -6.12155         1.31302
| 25>    H        1.60784         1.58944        -1.26613
| 26>    H        1.61662         0.04215        -2.12585
| 27>    H        3.14163         0.84360        -1.70681
| 28>    H        3.41398        -0.89696         1.96534
| 29>    H        0.90004        -2.51911         0.43007
| 30>    H        4.17798        -5.09810        -0.65507
| 31>    H        5.56968        -3.11822        -1.16231
| 32>    H        4.67199        -0.84709        -0.85704
| 33>    H        1.70284        -3.76706         2.68065
| 34>    H        0.01844        -3.89919         4.46945
| 35>    H       -1.89326        -5.46596         4.27487
| 36>    H       -2.11824        -6.91083         2.26952
| 37>    H       -0.45599        -6.76552         0.44094
| 38> *
| 39> 
| 40>                          ****END OF INPUT****
================================================================================

                       *****************************
                       * Geometry Optimization Run *
                       *****************************

Geometry optimization settings:
Update method            Update   .... BFGS
Choice of coordinates    CoordSys .... (2022) Redundant Internals
Initial Hessian          InHess   .... Almloef's Model
Max. no of cycles        MaxIter  .... 99

Convergence Tolerances:
Energy Change            TolE     ....  5.0000e-06 Eh
Max. Gradient            TolMAXG  ....  3.0000e-04 Eh/bohr
RMS Gradient             TolRMSG  ....  1.0000e-04 Eh/bohr
Max. Displacement        TolMAXD  ....  4.0000e-03 bohr
RMS Displacement         TolRMSD  ....  2.0000e-03 bohr
Strict Convergence                .... False

------------------------------------------------------------------------------
                        ORCA OPTIMIZATION COORDINATE SETUP
------------------------------------------------------------------------------

The optimization will be done in redundant internal coordinates (2022)
Making redundant internal coordinates   ...  (2022 redundants) done
Evaluating the initial hessian          ...  (Almloef) done
Evaluating the coordinates              ...  done
Calculating the B-matrix                .... done
Calculating the G-matrix                .... done
Diagonalizing the G-matrix              .... done
Small eigenvalue found = 3.170e-03
Small eigenvalue found = 1.297e-02
Small eigenvalue found = 1.621e-02
Small eigenvalue found = 2.759e-02
The first mode is                       ....   70
The number of degrees of freedom        ....   93

    -----------------------------------------------------------------
                    Redundant Internal Coordinates


    -----------------------------------------------------------------
         Definition                    Initial Value    Approx d2E/dq
    -----------------------------------------------------------------
      1. B(C   1,H   0)                  1.0986         0.348944   
      2. B(C   2,C   1)                  1.5330         0.369473   
      3. B(C   3,C   1)                  1.5307         0.372652   
      4. B(O   4,C   3)                  1.3526         0.641925   
      5. B(O   5,C   3)                  1.2233         1.032466   
      6. B(C   6,C   1)                  1.5258         0.379434   
      7. B(C   7,C   6)                  1.4083         0.584269   
      8. B(C   8,C   7)                  1.4036         0.594335   
      9. B(C   9,C   8)                  1.3982         0.606230   
     10. B(C  10,C   9)                  1.3931         0.617825   
     11. B(C  11,C  10)                  1.3947         0.614066   
     12. B(C  11,C   6)                  1.4042         0.593137   
     13. B(C  12,C   8)                  1.4873         0.437013   
     14. B(O  13,C  12)                  1.2290         1.010854   
     15. B(C  14,C  12)                  1.4865         0.438298   
     16. B(C  15,C  14)                  1.4005         0.601163   
     17. B(C  16,C  15)                  1.3961         0.611058   
     18. B(C  17,C  16)                  1.3946         0.614253   
     19. B(C  18,C  17)                  1.3943         0.614980   
     20. B(C  19,C  18)                  1.3957         0.611839   
     21. B(C  19,C  14)                  1.4006         0.600891   
     22. B(H  20,C   2)                  1.0959         0.352421   
     23. B(H  21,C   2)                  1.0953         0.353138   
     24. B(H  22,C   2)                  1.0963         0.351916   
     25. B(H  23,O   4)                  0.9766         0.489251   
     26. B(H  24,C   7)                  1.0887         0.361802   
     27. B(H  25,C   9)                  1.0891         0.361338   
     28. B(H  26,C  10)                  1.0880         0.362786   
     29. B(H  27,C  11)                  1.0899         0.360266   
     30. B(H  28,C  15)                  1.0856         0.365937   
     31. B(H  29,C  16)                  1.0876         0.363337   
     32. B(H  30,C  17)                  1.0871         0.363936   
     33. B(H  31,C  18)                  1.0874         0.363602   
     34. B(H  32,C  19)                  1.0887         0.361815   
     35. A(C   2,C   1,C   3)          109.8164         0.362514   
     36. A(C   3,C   1,C   6)          114.9940         0.364166   
     37. A(H   0,C   1,C   2)          107.6234         0.322065   
     38. A(H   0,C   1,C   3)          105.1573         0.322518   
     39. A(H   0,C   1,C   6)          108.4184         0.323473   
     40. A(C   2,C   1,C   6)          110.4516         0.363632   
     41. A(C   1,C   2,H  21)          111.3037         0.322697   
     42. A(H  20,C   2,H  22)          106.9450         0.288815   
     43. A(C   1,C   2,H  20)          110.8947         0.322589   
     44. A(H  20,C   2,H  21)          107.7699         0.288972   
     45. A(H  21,C   2,H  22)          107.9994         0.288907   
     46. A(C   1,C   2,H  22)          111.7273         0.322513   
     47. A(O   4,C   3,O   5)          120.6713         0.472947   
     48. A(C   1,C   3,O   5)          123.5022         0.431297   
     49. A(C   1,C   3,O   4)          115.7213         0.396390   
     50. A(C   3,O   4,H  23)          114.9548         0.368459   
     51. A(C   7,C   6,C  11)          118.6996         0.426065   
     52. A(C   1,C   6,C  11)          120.9747         0.394689   
     53. A(C   1,C   6,C   7)          120.3257         0.393649   
     54. A(C   8,C   7,H  24)          119.7953         0.350675   
     55. A(C   6,C   7,C   8)          120.5118         0.426219   
     56. A(C   6,C   7,H  24)          119.6808         0.349665   
     57. A(C   7,C   8,C   9)          119.7099         0.429047   
     58. A(C   9,C   8,C  12)          117.6836         0.406186   
     59. A(C   7,C   8,C  12)          122.5885         0.404767   
     60. A(C   8,C   9,C  10)          120.1483         0.432043   
     61. A(C  10,C   9,H  25)          119.7093         0.352904   
     62. A(C   8,C   9,H  25)          120.1423         0.351775   
     63. A(C   9,C  10,H  26)          119.7490         0.353143   
     64. A(C  11,C  10,H  26)          120.1254         0.352779   
     65. A(C   9,C  10,C  11)          120.1238         0.433042   
     66. A(C  10,C  11,H  27)          118.5137         0.352363   
     67. A(C   6,C  11,H  27)          120.7236         0.350304   
     68. A(C   6,C  11,C  10)          120.7571         0.429881   
     69. A(O  13,C  12,C  14)          119.0903         0.442405   
     70. A(C   8,C  12,C  14)          122.1150         0.383734   
     71. A(C   8,C  12,O  13)          118.7862         0.442171   
     72. A(C  15,C  14,C  19)          119.5448         0.429245   
     73. A(C  12,C  14,C  19)          118.3624         0.405762   
     74. A(C  12,C  14,C  15)          122.0444         0.405795   
     75. A(C  14,C  15,C  16)          120.0549         0.430540   
     76. A(C  16,C  15,H  28)          118.6088         0.353002   
     77. A(C  14,C  15,H  28)          121.3241         0.352028   
     78. A(C  15,C  16,C  17)          120.0979         0.432209   
     79. A(C  17,C  16,H  29)          119.8540         0.352887   
     80. A(C  15,C  16,H  29)          120.0439         0.352576   
     81. A(C  16,C  17,C  18)          120.0752         0.432706   
     82. A(C  18,C  17,H  30)          119.9317         0.353056   
     83. A(C  16,C  17,H  30)          119.9868         0.352986   
     84. A(C  17,C  18,C  19)          119.9883         0.432400   
     85. A(C  19,C  18,H  31)          119.9232         0.352696   
     86. A(C  17,C  18,H  31)          120.0875         0.353001   
     87. A(C  14,C  19,C  18)          120.1907         0.430604   
     88. A(C  18,C  19,H  32)          119.5736         0.352402   
     89. A(C  14,C  19,H  32)          120.2350         0.351327   
     90. D(H  21,C   2,C   1,C   6)     53.5300         0.010915   
     91. D(H  21,C   2,C   1,H   0)    -64.6524         0.010915   
     92. D(H  20,C   2,C   1,H   0)     55.3150         0.010915   
     93. D(H  21,C   2,C   1,C   3)   -178.6116         0.010915   
     94. D(H  20,C   2,C   1,C   6)    173.4974         0.010915   
     95. D(H  20,C   2,C   1,C   3)    -58.6442         0.010915   
     96. D(O   4,C   3,C   1,C   2)   -151.9883         0.010389   
     97. D(O   4,C   3,C   1,C   6)    -26.6943         0.010389   
     98. D(O   4,C   3,C   1,H   0)     92.4788         0.010389   
     99. D(O   5,C   3,C   1,C   2)     31.7265         0.010389   
    100. D(O   5,C   3,C   1,H   0)    -83.8065         0.010389   
    101. D(H  23,O   4,C   3,C   1)      4.1282         0.030392   
    102. D(H  23,O   4,C   3,O   5)   -179.4731         0.030392   
    103. D(C   7,C   6,C   1,H   0)     -1.0391         0.010745   
    104. D(C   7,C   6,C   1,C   2)   -118.7338         0.010745   
    105. D(C   7,C   6,C   1,C   3)    116.3033         0.010745   
    106. D(C  11,C   6,C   1,C   2)     61.2718         0.010745   
    107. D(C  11,C   6,C   1,H   0)    178.9666         0.010745   
    108. D(H  24,C   7,C   6,C  11)   -178.0886         0.023470   
    109. D(C   8,C   7,C   6,C  11)      0.6435         0.023470   
    110. D(H  24,C   7,C   6,C   1)      1.9169         0.023470   
    111. D(C   8,C   7,C   6,C   1)   -179.3510         0.023470   
    112. D(C  12,C   8,C   7,H  24)     -2.0246         0.024327   
    113. D(C  12,C   8,C   7,C   6)    179.2448         0.024327   
    114. D(C   9,C   8,C   7,H  24)    176.3959         0.024327   
    115. D(C   9,C   8,C   7,C   6)     -2.3348         0.024327   
    116. D(H  25,C   9,C   8,C  12)      0.9930         0.025364   
    117. D(H  25,C   9,C   8,C   7)   -177.5042         0.025364   
    118. D(C  10,C   9,C   8,C  12)   -179.0959         0.025364   
    119. D(C  10,C   9,C   8,C   7)      2.4069         0.025364   
    120. D(C  11,C  10,C   9,C   8)     -0.7943         0.026402   
    121. D(H  26,C  10,C   9,H  25)     -0.4016         0.026402   
    122. D(H  26,C  10,C   9,C   8)    179.6869         0.026402   
    123. D(C  11,C  10,C   9,H  25)    179.1172         0.026402   
    124. D(H  27,C  11,C  10,H  26)     -0.5525         0.026063   
    125. D(H  27,C  11,C  10,C   9)    179.9305         0.026063   
    126. D(C   6,C  11,C  10,H  26)    178.5956         0.026063   
    127. D(C   6,C  11,C  10,C   9)     -0.9213         0.026063   
    128. D(H  27,C  11,C   6,C   7)   -179.8830         0.024224   
    129. D(C  10,C  11,C   6,C   7)      0.9877         0.024224   
    130. D(C  10,C  11,C   6,C   1)   -179.0178         0.024224   
    131. D(H  27,C  11,C   6,C   1)      0.1114         0.024224   
    132. D(C  14,C  12,C   8,C   9)    145.7235         0.013036   
    133. D(C  14,C  12,C   8,C   7)    -35.8257         0.013036   
    134. D(O  13,C  12,C   8,C   9)    -33.2109         0.013036   
    135. D(O  13,C  12,C   8,C   7)    145.2398         0.013036   
    136. D(C  19,C  14,C  12,O  13)    -27.6903         0.013111   
    137. D(C  19,C  14,C  12,C   8)    153.3783         0.013111   
    138. D(C  15,C  14,C  12,O  13)    149.7664         0.013111   
    139. D(C  15,C  14,C  12,C   8)    -29.1649         0.013111   
    140. D(H  28,C  15,C  14,C  19)    176.1303         0.024919   
    141. D(H  28,C  15,C  14,C  12)     -1.2973         0.024919   
    142. D(C  16,C  15,C  14,C  19)     -2.5779         0.024919   
    143. D(C  16,C  15,C  14,C  12)    179.9945         0.024919   
    144. D(H  29,C  16,C  15,H  28)      1.7750         0.025793   
    145. D(H  29,C  16,C  15,C  14)   -179.4820         0.025793   
    146. D(C  17,C  16,C  15,H  28)   -177.4721         0.025793   
    147. D(C  17,C  16,C  15,C  14)      1.2709         0.025793   
    148. D(H  30,C  17,C  16,H  29)      0.3171         0.026079   
    149. D(H  30,C  17,C  16,C  15)    179.5656         0.026079   
    150. D(C  18,C  17,C  16,H  29)   -178.7729         0.026079   
    151. D(C  18,C  17,C  16,C  15)      0.4756         0.026079   
    152. D(C  19,C  18,C  17,C  16)     -0.8972         0.026145   
    153. D(H  31,C  18,C  17,H  30)     -0.3334         0.026145   
    154. D(H  31,C  18,C  17,C  16)    178.7571         0.026145   
    155. D(C  19,C  18,C  17,H  30)   -179.9877         0.026145   
    156. D(H  32,C  19,C  18,H  31)     -0.3833         0.025863   
    157. D(H  32,C  19,C  18,C  17)    179.2716         0.025863   
    158. D(C  14,C  19,C  18,H  31)    179.9174         0.025863   
    159. D(C  14,C  19,C  18,C  17)     -0.4277         0.025863   
    160. D(H  32,C  19,C  14,C  15)   -177.5382         0.024895   
    161. D(H  32,C  19,C  14,C  12)     -0.0161         0.024895   
    162. D(C  18,C  19,C  14,C  15)      2.1591         0.024895   
    163. D(C  18,C  19,C  14,C  12)    179.6813         0.024895   
    -----------------------------------------------------------------

Number of atoms                         .... 33
Number of degrees of freedom            .... 163


         *************************************************************
         *                GEOMETRY OPTIMIZATION CYCLE   1            *
         *************************************************************
---------------------------------
CARTESIAN COORDINATES (ANGSTROEM)
---------------------------------
  H      1.096620   -0.204250    0.326760
  C      2.137970   -0.111080   -0.010520
  C      2.126490    0.628040   -1.353530
  C      2.826660    0.751010    1.050360
  O      3.428370    0.075300    2.055840
  O      2.792360    1.973800    1.053180
  C      2.717610   -1.512460   -0.178170
  C      1.934000   -2.645630    0.113490
  C      2.467640   -3.936280   -0.026370
  C      3.771140   -4.099040   -0.505320
  C      4.554480   -2.984060   -0.794800
  C      4.035830   -1.700720   -0.623710
  C      1.687330   -5.163750    0.284290
  O      1.872990   -6.170870   -0.395240
  C      0.709640   -5.216690    1.402780
  C      0.854150   -4.432050    2.553800
  C     -0.089410   -4.514770    3.579380
  C     -1.163440   -5.397910    3.472030
  C     -1.292130   -6.207760    2.344340
  C     -0.355680   -6.121550    1.313020
  H      1.607840    1.589440   -1.266130
  H      1.616620    0.042150   -2.125850
  H      3.141630    0.843600   -1.706810
  H      3.413980   -0.896960    1.965340
  H      0.900040   -2.519110    0.430070
  H      4.177980   -5.098100   -0.655070
  H      5.569680   -3.118220   -1.162310
  H      4.671990   -0.847090   -0.857040
  H      1.702840   -3.767060    2.680650
  H      0.018440   -3.899190    4.469450
  H     -1.893260   -5.465960    4.274870
  H     -2.118240   -6.910830    2.269520
  H     -0.455990   -6.765520    0.440940

----------------------------
CARTESIAN COORDINATES (A.U.)
----------------------------
  NO LB      ZA    FRAG     MASS         X           Y           Z
   0 H     1.0000    0     1.008    2.072311   -0.385977    0.617487
   1 C     6.0000    0    12.011    4.040178   -0.209911   -0.019880
   2 C     6.0000    0    12.011    4.018484    1.186824   -2.557801
   3 C     6.0000    0    12.011    5.341613    1.419203    1.984893
   4 O     8.0000    0    15.999    6.478680    0.142296    3.884975
   5 O     8.0000    0    15.999    5.276796    3.729941    1.990222
   6 C     6.0000    0    12.011    5.135539   -2.858135   -0.336693
   7 C     6.0000    0    12.011    3.654730   -4.999516    0.214465
   8 C     6.0000    0    12.011    4.663164   -7.438491   -0.049832
   9 C     6.0000    0    12.011    7.126422   -7.746063   -0.954916
  10 C     6.0000    0    12.011    8.606720   -5.639056   -1.501954
  11 C     6.0000    0    12.011    7.626613   -3.213895   -1.178641
  12 C     6.0000    0    12.011    3.188592   -9.758073    0.537230
  13 O     8.0000    0    15.999    3.539438  -11.661254   -0.746895
  14 C     6.0000    0    12.011    1.341025   -9.858115    2.650870
  15 C     6.0000    0    12.011    1.614110   -8.375361    4.825983
  16 C     6.0000    0    12.011   -0.168960   -8.531679    6.764048
  17 C     6.0000    0    12.011   -2.198583  -10.200572    6.561186
  18 C     6.0000    0    12.011   -2.441772  -11.730966    4.430161
  19 C     6.0000    0    12.011   -0.672138  -11.568053    2.481248
  20 H     1.0000    0     1.008    3.038377    3.003606   -2.392639
  21 H     1.0000    0     1.008    3.054969    0.079652   -4.017274
  22 H     1.0000    0     1.008    5.936820    1.594173   -3.225403
  23 H     1.0000    0     1.008    6.451487   -1.695009    3.713954
  24 H     1.0000    0     1.008    1.700829   -4.760428    0.812715
  25 H     1.0000    0     1.008    7.895238   -9.634013   -1.237903
  26 H     1.0000    0     1.008   10.525170   -5.892582   -2.196448
  27 H     1.0000    0     1.008    8.828782   -1.600768   -1.619571
  28 H     1.0000    0     1.008    3.217901   -7.118712    5.065694
  29 H     1.0000    0     1.008    0.034847   -7.368401    8.446036
  30 H     1.0000    0     1.008   -3.577743  -10.329167    8.078334
  31 H     1.0000    0     1.008   -4.002893  -13.059576    4.288771
  32 H     1.0000    0     1.008   -0.861696  -12.784980    0.833256

--------------------------------
INTERNAL COORDINATES (ANGSTROEM)
--------------------------------
 H      0   0   0     0.000000000000     0.00000000     0.00000000
 C      1   0   0     1.098566461258     0.00000000     0.00000000
 C      2   1   0     1.533005552795   107.62340938     0.00000000
 C      2   1   3     1.530672877724   105.15733455   117.03767684
 O      4   2   1     1.352637778047   115.72133848    92.47875254
 O      4   2   1     1.223274223754   123.50219437   276.19352862
 C      2   1   3     1.525763728924   108.41839138   240.51438383
 C      7   2   1     1.408255813622   120.32570271   358.96093587
 C      8   7   2     1.403606031513   120.51177098   180.64899473
 C      9   8   7     1.398211775841   119.70992143   357.66522722
 C     10   9   8     1.393054423345   120.14832190     2.40693947
 C     11  10   9     1.394715442734   120.12384667   359.20570594
 C      9   8   7     1.487304922536   122.58853406   179.24475891
 O     13   9   8     1.229032689110   118.78621433   145.23984250
 C     13   9   8     1.486506057774   122.11502274   324.17428102
 C     15  13   9     1.400496379895   122.04444038   330.83514153
 C     16  15  13     1.396052437554   120.05485425   179.99449155
 C     17  16  15     1.394632827306   120.09787136     1.27089464
 C     18  17  16     1.394310895998   120.07520224     0.47561130
 C     19  18  17     1.395704735609   119.98834559   359.10278352
 H      3   2   1     1.095867940265   110.89471659    55.31497535
 H      3   2   1     1.095313969326   111.30368068   295.34758165
 H      3   2   1     1.096258223048   111.72730933   174.52150211
 H      5   4   2     0.976568906785   114.95483919     4.12821327
 H      8   7   2     1.088716440769   119.68079471     1.91685859
 H     10   9   8     1.089065990517   120.14231725   182.49583062
 H     11  10   9     1.087976813034   119.74898539   179.68694503
 H     12  11  10     1.089874585170   118.51374391   179.93051835
 H     16  15  13     1.085623018686   121.32409245   358.70268205
 H     17  16  15     1.087563774590   120.04385632   180.51797952
 H     18  17  16     1.087115495474   119.98681805   179.56561602
 H     19  18  17     1.087365251146   120.08750906   178.75711314
 H     20  19  18     1.088707023675   119.57356025   179.27163915

---------------------------
INTERNAL COORDINATES (A.U.)
---------------------------
 H      0   0   0     0.000000000000     0.00000000     0.00000000
 C      1   0   0     2.075989751688     0.00000000     0.00000000
 C      2   1   0     2.896960656563   107.62340938     0.00000000
 C      2   1   3     2.892552539520   105.15733455   117.03767684
 O      4   2   1     2.556114958905   115.72133848    92.47875254
 O      4   2   1     2.311653269579   123.50219437   276.19352862
 C      2   1   3     2.883275592737   108.41839138   240.51438383
 C      7   2   1     2.661217814248   120.32570271   358.96093587
 C      8   7   2     2.652430999480   120.51177098   180.64899473
 C      9   8   7     2.642237333563   119.70992143   357.66522722
 C     10   9   8     2.632491349769   120.14832190     2.40693947
 C     11  10   9     2.635630221518   120.12384667   359.20570594
 C      9   8   7     2.810598981226   122.58853406   179.24475891
 O     13   9   8     2.322535192054   118.78621433   145.23984250
 C     13   9   8     2.809089345609   122.11502274   324.17428102
 C     15  13   9     2.646554609550   122.04444038   330.83514153
 C     16  15  13     2.638156775570   120.05485425   179.99449155
 C     17  16  15     2.635474100985   120.09787136     1.27089464
 C     18  17  16     2.634865738979   120.07520224     0.47561130
 C     19  18  17     2.637499714117   119.98834559   359.10278352
 H      3   2   1     2.070890286045   110.89471659    55.31497535
 H      3   2   1     2.069843432684   111.30368068   295.34758165
 H      3   2   1     2.071627813620   111.72730933   174.52150211
 H      5   4   2     1.845447784727   114.95483919     4.12821327
 H      8   7   2     2.057375910550   119.68079471     1.91685859
 H     10   9   8     2.058036463844   120.14231725   182.49583062
 H     11  10   9     2.055978216691   119.74898539   179.68694503
 H     12  11  10     2.059564486293   118.51374391   179.93051835
 H     16  15  13     2.051530189997   121.32409245   358.70268205
 H     17  16  15     2.055197687148   120.04385632   180.51797952
 H     18  17  16     2.054350562388   119.98681805   179.56561602
 H     19  18  17     2.054822532209   120.08750906   178.75711314
 H     20  19  18     2.057358114823   119.57356025   179.27163915

---------------------
BASIS SET INFORMATION
---------------------
There are 3 groups of distinct atoms

 Group   1 Type H   : 5s1p contracted to 3s1p pattern {311/1}
 Group   2 Type C   : 12s6p1d contracted to 5s4p1d pattern {63111/3111/1}
 Group   3 Type O   : 12s6p1d contracted to 5s4p1d pattern {63111/3111/1}

Atom   0H    basis set group =>   1
Atom   1C    basis set group =>   2
Atom   2C    basis set group =>   2
Atom   3C    basis set group =>   2
Atom   4O    basis set group =>   3
Atom   5O    basis set group =>   3
Atom   6C    basis set group =>   2
Atom   7C    basis set group =>   2
Atom   8C    basis set group =>   2
Atom   9C    basis set group =>   2
Atom  10C    basis set group =>   2
Atom  11C    basis set group =>   2
Atom  12C    basis set group =>   2
Atom  13O    basis set group =>   3
Atom  14C    basis set group =>   2
Atom  15C    basis set group =>   2
Atom  16C    basis set group =>   2
Atom  17C    basis set group =>   2
Atom  18C    basis set group =>   2
Atom  19C    basis set group =>   2
Atom  20H    basis set group =>   1
Atom  21H    basis set group =>   1
Atom  22H    basis set group =>   1
Atom  23H    basis set group =>   1
Atom  24H    basis set group =>   1
Atom  25H    basis set group =>   1
Atom  26H    basis set group =>   1
Atom  27H    basis set group =>   1
Atom  28H    basis set group =>   1
Atom  29H    basis set group =>   1
Atom  30H    basis set group =>   1
Atom  31H    basis set group =>   1
Atom  32H    basis set group =>   1
---------------------------------
AUXILIARY/J BASIS SET INFORMATION
---------------------------------
There are 3 groups of distinct atoms

 Group   1 Type H   : 5s2p1d contracted to 3s1p1d pattern {311/2/1}
 Group   2 Type C   : 12s5p4d2f1g contracted to 6s4p3d1f1g pattern {711111/2111/211/2/1}
 Group   3 Type O   : 12s5p4d2f1g contracted to 6s4p3d1f1g pattern {711111/2111/211/2/1}

Atom   0H    basis set group =>   1
Atom   1C    basis set group =>   2
Atom   2C    basis set group =>   2
Atom   3C    basis set group =>   2
Atom   4O    basis set group =>   3
Atom   5O    basis set group =>   3
Atom   6C    basis set group =>   2
Atom   7C    basis set group =>   2
Atom   8C    basis set group =>   2
Atom   9C    basis set group =>   2
Atom  10C    basis set group =>   2
Atom  11C    basis set group =>   2
Atom  12C    basis set group =>   2
Atom  13O    basis set group =>   3
Atom  14C    basis set group =>   2
Atom  15C    basis set group =>   2
Atom  16C    basis set group =>   2
Atom  17C    basis set group =>   2
Atom  18C    basis set group =>   2
Atom  19C    basis set group =>   2
Atom  20H    basis set group =>   1
Atom  21H    basis set group =>   1
Atom  22H    basis set group =>   1
Atom  23H    basis set group =>   1
Atom  24H    basis set group =>   1
Atom  25H    basis set group =>   1
Atom  26H    basis set group =>   1
Atom  27H    basis set group =>   1
Atom  28H    basis set group =>   1
Atom  29H    basis set group =>   1
Atom  30H    basis set group =>   1
Atom  31H    basis set group =>   1
Atom  32H    basis set group =>   1
------------------------------------------------------------------------------
                             ORCA STARTUP CALCULATIONS
                           -- RI-GTO INTEGRALS CHOSEN --
------------------------------------------------------------------------------
------------------------------------------------------------------------------
                   ___                                                        
                  /   \      - P O W E R E D   B Y -                         
                 /     \                                                     
                 |  |  |   _    _      __       _____    __    __             
                 |  |  |  | |  | |    /  \     |  _  \  |  |  /  |          
                  \  \/   | |  | |   /    \    | | | |  |  | /  /          
                 / \  \   | |__| |  /  /\  \   | |_| |  |  |/  /          
                |  |  |   |  __  | /  /__\  \  |    /   |      \           
                |  |  |   | |  | | |   __   |  |    \   |  |\   \          
                \     /   | |  | | |  |  |  |  | |\  \  |  | \   \       
                 \___/    |_|  |_| |__|  |__|  |_| \__\ |__|  \__/        
                                                                              
                      - O R C A' S   B I G   F R I E N D -                    
                                      &                                       
                       - I N T E G R A L  F E E D E R -                       
                                                                              
 v1 FN, 2020, v2 2021, v3 2022-2024                                           
------------------------------------------------------------------------------


----------------------
SHARK INTEGRAL PACKAGE
----------------------

Number of atoms                             ...     33
Number of basis functions                   ...    502
Number of shells                            ...    246
Maximum angular momentum                    ...      2
Integral batch strategy                     ... SHARK/LIBINT Hybrid
RI-J (if used) integral strategy            ... SPLIT-RIJ (Revised 2003 algorithm where possible)
Printlevel                                  ...      1
Contraction scheme used                     ... SEGMENTED contraction
Prescreening option                         ... SCHWARTZ
   Thresh                                   ... 2.500e-11
   Tcut                                     ... 2.500e-12
   Tpresel                                  ... 2.500e-12 
Coulomb Range Separation                    ... NOT USED
Exchange Range Separation                   ... NOT USED
Multipole approximations                    ... NOT USED
Finite Nucleus Model                        ... NOT USED
CABS basis                                  ... NOT available
Auxiliary Coulomb fitting basis             ... AVAILABLE
   # of basis functions in Aux-J            ...   1085
   # of shells in Aux-J                     ...    355
   Maximum angular momentum in Aux-J        ...      4
Auxiliary J/K fitting basis                 ... NOT available
Auxiliary Correlation fitting basis         ... NOT available
Auxiliary 'external' fitting basis          ... NOT available

Checking pre-screening integrals            ... done (  0.0 sec) Dimension = 246
Check shell pair data                       ... done (  0.0 sec)
Shell pair information
Shell pair cut-off parameter TPreSel        ...   2.5e-12
Total number of shell pairs                 ...     30381
Shell pairs after pre-screening             ...     23558
Total number of primitive shell pairs       ...     99676
Primitive shell pairs kept                  ...     51797
          la=0 lb=0:   7129 shell pairs
          la=1 lb=0:   9763 shell pairs
          la=1 lb=1:   3395 shell pairs
          la=2 lb=0:   1843 shell pairs
          la=2 lb=1:   1300 shell pairs
          la=2 lb=2:    128 shell pairs

Calculating one electron integrals          ... done (  0.1 sec)
Calculating RI/J V-Matrix + Cholesky decomp.... done (  0.0 sec)
Calculating Nuclear repulsion               ... done (  0.0 sec) ENN=   1312.841986003011 Eh

Diagonalization of the overlap matrix:
Smallest eigenvalue                        ... 5.885e-07
Time for diagonalization                   ...    0.014 sec
Threshold for overlap eigenvalues          ... 1.000e-07
Number of eigenvalues below threshold      ... 0

IMPORTANT:
Smallest eigenvalue of S below the DiffSThresh (1.000e-06) while
Thresh>1e-12 and/or TCut>1e-13! In order to avoid SCF convergence issues,
Thresh will be set to at least 1e-12 and TCut to at least 1e-13.
This can be turned off by adding %SCF DiffSThresh -1 END to the input.

Time for construction of square roots      ...    0.010 sec
Total time needed                          ...    0.027 sec

-------------------
DFT GRID GENERATION
-------------------

General Integration Accuracy     IntAcc      ... 4.388
Radial Grid Type                 RadialGrid  ... OptM3 with GC (2021)
Angular Grid (max. ang.)         AngularGrid ... 4 (Lebedev-302)
Angular grid pruning method      GridPruning ... 4 (adaptive)
Weight generation scheme         WeightScheme... mBecke (2022)
Basis function cutoff            BFCut       ... 1.0000e-11
Integration weight cutoff        WCut        ... 1.0000e-14
Partially contracted basis set               ... off
Rotationally invariant grid construction     ... off
Angular grids for H and He will be reduced by one unit
Diffuse basis detected: some atoms will have their outermost
                        angular grid increased by 1.

Total number of grid points                  ...   163139
Total number of batches                      ...     2565
Average number of points per batch           ...       63
Average number of grid points per atom       ...     4944

--------------------
COSX GRID GENERATION
--------------------

GRIDX 1
-------
General Integration Accuracy     IntAcc      ... 3.816
Radial Grid Type                 RadialGrid  ... OptM3 with GC (2021)
Angular Grid (max. ang.)         AngularGrid ... 1 (Lebedev-50)
Angular grid pruning method      GridPruning ... 4 (adaptive)
Weight generation scheme         WeightScheme... mBecke (2022)
Basis function cutoff            BFCut       ... 1.0000e-11
Integration weight cutoff        WCut        ... 1.0000e-14
Partially contracted basis set               ... on
Rotationally invariant grid construction     ... off
Angular grids for H and He will be reduced by one unit
Diffuse basis detected: some atoms will have their outermost
                        angular grid increased by 1.

Total number of grid points                  ...    20728
Total number of batches                      ...      179
Average number of points per batch           ...      115
Average number of grid points per atom       ...      628
UseSFitting                                  ... on

GRIDX 2
-------
General Integration Accuracy     IntAcc      ... 4.020
Radial Grid Type                 RadialGrid  ... OptM3 with GC (2021)
Angular Grid (max. ang.)         AngularGrid ... 2 (Lebedev-110)
Angular grid pruning method      GridPruning ... 4 (adaptive)
Weight generation scheme         WeightScheme... mBecke (2022)
Basis function cutoff            BFCut       ... 1.0000e-11
Integration weight cutoff        WCut        ... 1.0000e-14
Partially contracted basis set               ... on
Rotationally invariant grid construction     ... off
Angular grids for H and He will be reduced by one unit
Diffuse basis detected: some atoms will have their outermost
                        angular grid increased by 1.

Total number of grid points                  ...    49018
Total number of batches                      ...      396
Average number of points per batch           ...      123
Average number of grid points per atom       ...     1485
UseSFitting                                  ... on

GRIDX 3
-------
General Integration Accuracy     IntAcc      ... 4.338
Radial Grid Type                 RadialGrid  ... OptM3 with GC (2021)
Angular Grid (max. ang.)         AngularGrid ... 3 (Lebedev-194)
Angular grid pruning method      GridPruning ... 4 (adaptive)
Weight generation scheme         WeightScheme... mBecke (2022)
Basis function cutoff            BFCut       ... 1.0000e-11
Integration weight cutoff        WCut        ... 1.0000e-14
Partially contracted basis set               ... on
Rotationally invariant grid construction     ... off
Angular grids for H and He will be reduced by one unit
Diffuse basis detected: some atoms will have their outermost
                        angular grid increased by 1.

Total number of grid points                  ...   105699
Total number of batches                      ...      842
Average number of points per batch           ...      125
Average number of grid points per atom       ...     3203
UseSFitting                                  ... on
Initializing property integral containers    ... done (  0.0 sec)

SHARK setup successfully completed in   3.3 seconds

Maximum memory used throughout the entire STARTUP-calculation: 86.0 MB
-------------------------------------------------------------------------------
                                 ORCA GUESS
                   Start orbitals & Density for SCF / CASSCF
-------------------------------------------------------------------------------

------------
SCF SETTINGS
------------
Hamiltonian:
 Density Functional     Method          .... DFT(GTOs)
 Exchange Functional    Exchange        .... B88
   X-Alpha parameter    XAlpha          ....  0.666667
   Becke's b parameter  XBeta           ....  0.004200
 Correlation Functional Correlation     .... LYP
 LDA part of GGA corr.  LDAOpt          .... VWN-5
 Gradients option       PostSCFGGA      .... off
 Hybrid DFT is turned on
   Fraction HF Exchange ScalHFX         ....  0.200000
   Scaling of DF-GGA-X  ScalDFX         ....  0.720000
   Scaling of DF-GGA-C  ScalDFC         ....  0.810000
   Scaling of DF-LDA-C  ScalLDAC        ....  1.000000
   Perturbative correction              ....  0.000000
   NL short-range parameter             ....  4.800000
 RI-approximation to the Coulomb term is turned on
   Number of AuxJ basis functions       .... 1085
   RIJ-COSX (HFX calculated with COS-X)).... on


General Settings:
 Integral files         IntName         .... Dexketoprofen\Dexketoprofen_B3LYP_6-311+G\Dexketoprofen_B3LYP_6-311+G.orcainp
 Hartree-Fock type      HFTyp           .... RHF
 Total Charge           Charge          ....    0
 Multiplicity           Mult            ....    1
 Number of Electrons    NEL             ....  134
 Basis Dimension        Dim             ....  502
 Nuclear Repulsion      ENuc            ....   1312.8419860030 Eh

Convergence Acceleration:
 AO-DIIS                CNVDIIS         .... on
   Start iteration      DIISMaxIt       ....    12
   Startup error        DIISStart       ....  0.200000
   # of expansion vecs  DIISMaxEq       ....     5
   Bias factor          DIISBfac        ....   1.050
   Max. coefficient     DIISMaxC        ....  10.000
 MO-DIIS                CNVKDIIS        .... off
 Trust-Rad. Augm. Hess. CNVTRAH         .... auto
   Auto Start mean grad. ratio tolernc. ....  1.125000
   Auto Start start iteration           ....    50
   Auto Start num. interpolation iter.  ....    10
   Max. Number of Micro iterations      ....    24
   Max. Number of Macro iterations      .... Maxiter - #DIIS iter
   Number of Davidson start vectors     ....     2
   Converg. threshold    (grad. norm)   ....   1.000e-05
   Grad. Scal. Fac. for Micro threshold ....   0.100
   Minimum threshold for Micro iter.    ....   1.000e-02
   NR start threshold (gradient norm)   ....   1.000e-04
   Initial trust radius                 ....   0.400
   Minimum AH scaling param. (alpha)    ....   1.000
   Maximum AH scaling param. (alpha)    .... 1000.000
   Quad. conv. algorithm                .... NR
   White noise on init. David. guess    .... on
   Maximum white noise                  ....   0.010
   Pseudo random numbers                .... off
   Inactive MOs                         .... canonical
   Orbital update algorithm             .... Taylor
   Preconditioner                       .... Diag
   Full preconditioner red. dimension   ....   250
 SOSCF                  CNVSOSCF        .... on
   Start iteration      SOSCFMaxIt      ....   150
   Startup grad/error   SOSCFStart      ....  0.003300
   Hessian update       SOSCFHessUp     .... L-BFGS
 Level Shifting         CNVShift        .... on
   Level shift para.    LevelShift      ....    0.2500
   Turn off err/grad.   ShiftErr        ....    0.0010
 Zerner damping         CNVZerner       .... off
 Static damping         CNVDamp         .... on
   Fraction old density DampFac         ....    0.7000
   Max. Damping (<1)    DampMax         ....    0.9800
   Min. Damping (>=0)   DampMin         ....    0.0000
   Turn off err/grad.   DampErr         ....    0.1000

SCF Procedure:
 Maximum # iterations   MaxIter         ....   125
 SCF integral mode      SCFMode         .... Direct
   Integral package                     .... SHARK and LIBINT hybrid scheme
 Reset frequency        DirectResetFreq ....    20
 Integral Threshold     Thresh          ....  1.000e-12 Eh
 Primitive CutOff       TCut            ....  1.000e-13 Eh

Convergence Tolerance:
 Convergence Check Mode ConvCheckMode   .... Total+1el-Energy
 Convergence forced     ConvForced      .... 0
 Energy Change          TolE            ....  1.000e-08 Eh
 1-El. energy change                    ....  1.000e-05 Eh
 Orbital Gradient       TolG            ....  1.000e-05
 Orbital Rotation angle TolX            ....  1.000e-05
 DIIS Error             TolErr          ....  5.000e-07

------------------------------
INITIAL GUESS: MODEL POTENTIAL
------------------------------
Loading Hartree-Fock densities                     ... done
Calculating cut-offs                               ... done
Initializing the effective Hamiltonian             ... done
Setting up the integral package (SHARK)            ... done
Starting the Coulomb interaction                   ... done (   0.6 sec)
Making the grid                                    ... done (   0.4 sec)
Mapping shells                                     ... done
Starting the XC term evaluation                    ... done (   0.9 sec)
  promolecular density results
     # of electrons  =    133.983021590
     EX              =   -110.978938938
     EC              =     -4.556844875
     EX+EC           =   -115.535783813
Transforming the Hamiltonian                       ... done (   0.0 sec)
Diagonalizing the Hamiltonian                      ... done (   0.0 sec)
Back transforming the eigenvectors                 ... done (   0.0 sec)
Now organizing SCF variables                       ... done
                      ------------------
                      INITIAL GUESS DONE (   2.0 sec)
                      ------------------
             **** ENERGY FILE WAS UPDATED (Dexketoprofen\Dexketoprofen_B3LYP_6-311+G\Dexketoprofen_B3LYP_6-311+G.orcainp.en.tmp) ****
Finished Guess after   2.1 sec
Maximum memory used throughout the entire GUESS-calculation: 54.7 MB

-------------------------------------------------------------------------------------------
                                      ORCA LEAN-SCF
                              memory conserving SCF solver
-------------------------------------------------------------------------------------------

--------------------
CPCM SOLVATION MODEL
--------------------
CPCM parameters:
  Epsilon                                         ...      80.1510
  Refrac                                          ...       1.3328
  Rsolv                                           ...       1.3000
  Surface type                                    ... GAUSSIAN VDW
  Discretization scheme                           ... Constant charge density
    Threshold for H atoms                         ...       5.0000 (charges/Ang^2)
    Threshold for non-H atoms                     ...       5.0000 (charges/Ang^2)
  Epsilon function type                           ...         CPCM
Solvent:                                          ... WATER
Radii:
  Scheme                                          ... Element-dependent radii
  Radius for H  used is    2.4944 Bohr (=   1.3200 Ang.)
  Radius for C  used is    3.8550 Bohr (=   2.0400 Ang.)
  Radius for O  used is    3.4469 Bohr (=   1.8240 Ang.)
Calculating surface                               ...        done! (  0.0s)
Cavity surface points                             ...         2957
Cavity Volume                                     ...    2100.0638
Cavity Surface-area                               ...    1086.2172
Calculating surface distance matrix               ...        done! (  0.0s)
Performing Cholesky decomposition & store         ...        done! (  0.2s)
Overall time for CPCM initialization              ...                 0.2s

----------------------------------------D-I-I-S--------------------------------------------
Iteration    Energy (Eh)           Delta-E    RMSDP     MaxDP     DIISErr   Damp  Time(sec)
-------------------------------------------------------------------------------------------
               ***  Starting incremental Fock matrix formation  ***
    1    -843.0663331845639732     0.00e+00  1.68e-02  2.73e+00  3.29e-01  0.700  25.7
    2    -843.3080454431733415    -2.42e-01  9.02e-03  1.09e+00  1.21e-01  0.700  13.5
                               ***Turning on AO-DIIS***
    3    -843.3995072717548283    -9.15e-02  4.06e-03  4.48e-01  3.92e-02  0.700  13.3
    4    -843.4565664049105180    -5.71e-02  8.45e-03  1.10e+00  1.99e-02  0.000  12.8
    5    -843.5820047561696811    -1.25e-01  2.48e-03  2.71e-01  6.28e-03  0.000  13.1
                              *** Initializing SOSCF ***
---------------------------------------S-O-S-C-F--------------------------------------
Iteration    Energy (Eh)           Delta-E    RMSDP     MaxDP     MaxGrad    Time(sec)
--------------------------------------------------------------------------------------
    6    -843.5827210959973854    -7.16e-04  8.87e-04  9.00e-02  1.90e-03    12.4
               *** Restarting incremental Fock matrix formation ***
    7    -843.5827725932840622    -5.15e-05  7.25e-04  7.55e-02  2.43e-04    25.6
    8    -843.5827694996205537     3.09e-06  3.00e-04  5.77e-02  4.85e-04    20.4
    9    -843.5827792657178179    -9.77e-06  1.24e-04  9.90e-03  9.37e-05    19.2
   10    -843.5827790095936507     2.56e-07  6.18e-05  6.68e-03  9.92e-05    18.8
   11    -843.5827796959624720    -6.86e-07  5.17e-05  6.87e-03  1.89e-05    17.7
   12    -843.5827796942744499     1.69e-09  3.68e-05  7.67e-03  1.92e-05    17.1
                 **** Energy Check signals convergence ****

               *****************************************************
               *                     SUCCESS                       *
               *           SCF CONVERGED AFTER  12 CYCLES          *
               *****************************************************

Recomputing exchange energy using gridx3       ... done (   40.437 sec)
Old exchange energy                            :    -22.522591929 Eh
New exchange energy                            :    -22.522623045 Eh
Exchange energy change after final integration :     -0.000031116 Eh
Total energy after final integration           :   -843.582810810 Eh
             **** ENERGY FILE WAS UPDATED (Dexketoprofen\Dexketoprofen_B3LYP_6-311+G\Dexketoprofen_B3LYP_6-311+G.orcainp.en.tmp) ****

----------------
TOTAL SCF ENERGY
----------------

Total Energy       :       -843.58281081004509 Eh          -22955.05529 eV

Components:
Nuclear Repulsion  :       1312.84198600301079 Eh           35724.24662 eV
Electronic Energy  :      -2156.39254858745880 Eh          -58678.42440 eV
One Electron Energy:      -3751.23871899877395 Eh         -102076.39501 eV
Two Electron Energy:       1594.84617041131514 Eh           43397.97061 eV
CPCM Dielectric    :         -0.03221710982622 Eh              -0.87667 eV

Virial components:
Potential Energy   :      -1683.90773446287039 Eh          -45821.45897 eV
Kinetic Energy     :        840.32492365282519 Eh           22866.40368 eV
Virial Ratio       :          2.00387693743874

DFT components:
N(Alpha)           :       67.000010106045 electrons
N(Beta)            :       67.000010106045 electrons
N(Total)           :      134.000020212089 electrons
E(X)               :      -89.544977838790 Eh       
E(C)               :       -5.375705319111 Eh       
E(XC)              :      -94.920683157901 Eh       

CPCM Solvation Model Properties:
Surface-charge          :         -0.03314416307258
Corrected charge        :         -0.00000000000000
Outlying charge corr.   :          0.00006102512520 Eh               0.00166 eV
Free-energy (cav+disp)  :  This term is not implemented in the current solvation scheme

---------------
SCF CONVERGENCE
---------------

  Last Energy change         ...   -1.6880e-09  Tolerance :   1.0000e-08
  Last MAX-Density change    ...    7.6673e-03  Tolerance :   1.0000e-07
  Last RMS-Density change    ...    3.6810e-05  Tolerance :   5.0000e-09
  Last DIIS Error            ...    1.8951e-03  Tolerance :   5.0000e-07
  Last Orbital Gradient      ...    1.9239e-05  Tolerance :   1.0000e-05
  Last Orbital Rotation      ...    2.6348e-05  Tolerance :   1.0000e-05


----------------
ORBITAL ENERGIES
----------------

  NO   OCC          E(Eh)            E(eV) 
   0   2.0000     -19.178896      -521.8843 
   1   2.0000     -19.126400      -520.4558 
   2   2.0000     -19.119944      -520.2801 
   3   2.0000     -10.322410      -280.8870 
   4   2.0000     -10.273026      -279.5432 
   5   2.0000     -10.204600      -277.6813 
   6   2.0000     -10.201498      -277.5969 
   7   2.0000     -10.196531      -277.4617 
   8   2.0000     -10.194040      -277.3939 
   9   2.0000     -10.193922      -277.3907 
  10   2.0000     -10.190170      -277.2886 
  11   2.0000     -10.188667      -277.2477 
  12   2.0000     -10.188412      -277.2408 
  13   2.0000     -10.186923      -277.2003 
  14   2.0000     -10.185584      -277.1638 
  15   2.0000     -10.185284      -277.1557 
  16   2.0000     -10.182521      -277.0805 
  17   2.0000     -10.182407      -277.0774 
  18   2.0000     -10.164144      -276.5804 
  19   2.0000      -1.112068       -30.2609 
  20   2.0000      -1.053337       -28.6627 
  21   2.0000      -1.031990       -28.0819 
  22   2.0000      -0.879667       -23.9370 
  23   2.0000      -0.869648       -23.6643 
  24   2.0000      -0.815871       -22.2010 
  25   2.0000      -0.783722       -21.3262 
  26   2.0000      -0.761412       -20.7191 
  27   2.0000      -0.756343       -20.5811 
  28   2.0000      -0.743253       -20.2249 
  29   2.0000      -0.668764       -18.1980 
  30   2.0000      -0.662860       -18.0374 
  31   2.0000      -0.630282       -17.1508 
  32   2.0000      -0.627260       -17.0686 
  33   2.0000      -0.616076       -16.7643 
  34   2.0000      -0.602610       -16.3978 
  35   2.0000      -0.566779       -15.4229 
  36   2.0000      -0.541669       -14.7396 
  37   2.0000      -0.515330       -14.0228 
  38   2.0000      -0.508989       -13.8503 
  39   2.0000      -0.487900       -13.2764 
  40   2.0000      -0.479442       -13.0463 
  41   2.0000      -0.473797       -12.8927 
  42   2.0000      -0.469420       -12.7736 
  43   2.0000      -0.459815       -12.5122 
  44   2.0000      -0.449695       -12.2368 
  45   2.0000      -0.443056       -12.0562 
  46   2.0000      -0.437039       -11.8924 
  47   2.0000      -0.433218       -11.7885 
  48   2.0000      -0.431250       -11.7349 
  49   2.0000      -0.417648       -11.3648 
  50   2.0000      -0.409283       -11.1371 
  51   2.0000      -0.398059       -10.8317 
  52   2.0000      -0.379955       -10.3391 
  53   2.0000      -0.375702       -10.2234 
  54   2.0000      -0.370436       -10.0801 
  55   2.0000      -0.366320        -9.9681 
  56   2.0000      -0.363117        -9.8809 
  57   2.0000      -0.358687        -9.7604 
  58   2.0000      -0.352726        -9.5982 
  59   2.0000      -0.347205        -9.4479 
  60   2.0000      -0.335539        -9.1305 
  61   2.0000      -0.301144        -8.1945 
  62   2.0000      -0.278823        -7.5872 
  63   2.0000      -0.272706        -7.4207 
  64   2.0000      -0.266952        -7.2641 
  65   2.0000      -0.265163        -7.2155 
  66   2.0000      -0.258782        -7.0418 
  67   0.0000      -0.081290        -2.2120 
  68   0.0000      -0.034406        -0.9362 
  69   0.0000      -0.031424        -0.8551 
  70   0.0000      -0.021348        -0.5809 
  71   0.0000      -0.016931        -0.4607 
  72   0.0000       0.000430         0.0117 
  73   0.0000       0.014249         0.3877 
  74   0.0000       0.019222         0.5231 
  75   0.0000       0.023998         0.6530 
  76   0.0000       0.030392         0.8270 
  77   0.0000       0.030480         0.8294 
*Only the first 10 virtual orbitals were printed.

                    ********************************
                    * MULLIKEN POPULATION ANALYSIS *
                    ********************************

-----------------------
MULLIKEN ATOMIC CHARGES
-----------------------
   0 H :    0.208061
   1 C :    0.081012
   2 C :   -0.593457
   3 C :   -0.002812
   4 O :   -0.246810
   5 O :   -0.357177
   6 C :    1.257782
   7 C :   -2.026882
   8 C :    1.384778
   9 C :    0.279241
  10 C :   -0.256789
  11 C :   -0.668523
  12 C :   -1.062748
  13 O :   -0.281848
  14 C :    1.380303
  15 C :   -0.950615
  16 C :   -0.333704
  17 C :   -0.170445
  18 C :   -0.234982
  19 C :    0.229464
  20 H :    0.166674
  21 H :    0.159386
  22 H :    0.170163
  23 H :    0.355080
  24 H :    0.175803
  25 H :    0.164593
  26 H :    0.167944
  27 H :    0.174626
  28 H :    0.179061
  29 H :    0.162690
  30 H :    0.165333
  31 H :    0.163987
  32 H :    0.160811
Sum of atomic charges:   -0.0000000

--------------------------------
MULLIKEN REDUCED ORBITAL CHARGES
--------------------------------
  0 H s       :     0.769126  s :     0.769126
      pz      :     0.005207  p :     0.022813
      px      :     0.013316
      py      :     0.004289

  1 C s       :     3.019820  s :     3.019820
      pz      :     0.815888  p :     2.831387
      px      :     1.044341
      py      :     0.971158
      dz2     :     0.012300  d :     0.067782
      dxz     :     0.012917
      dyz     :     0.018193
      dx2y2   :     0.013758
      dxy     :     0.010615

  2 C s       :     3.436224  s :     3.436224
      pz      :     0.933012  p :     3.112341
      px      :     1.097939
      py      :     1.081391
      dz2     :     0.009747  d :     0.044892
      dxz     :     0.008807
      dyz     :     0.010125
      dx2y2   :     0.007956
      dxy     :     0.008258

  3 C s       :     3.371760  s :     3.371760
      pz      :     0.829982  p :     2.436430
      px      :     0.791728
      py      :     0.814720
      dz2     :     0.028551  d :     0.194622
      dxz     :     0.015010
      dyz     :     0.072317
      dx2y2   :     0.027958
      dxy     :     0.050786

  4 O s       :     3.704101  s :     3.704101
      pz      :     1.526718  p :     4.530542
      px      :     1.673540
      py      :     1.330283
      dz2     :     0.003254  d :     0.012168
      dxz     :     0.002748
      dyz     :     0.002253
      dx2y2   :     0.003054
      dxy     :     0.000859

  5 O s       :     3.876801  s :     3.876801
      pz      :     1.701160  p :     4.464892
      px      :     1.519086
      py      :     1.244647
      dz2     :     0.002001  d :     0.015483
      dxz     :     0.000032
      dyz     :     0.003562
      dx2y2   :     0.005728
      dxy     :     0.004161

  6 C s       :     1.955586  s :     1.955586
      pz      :     1.021280  p :     2.716020
      px      :     0.881240
      py      :     0.813500
      dz2     :     0.005905  d :     0.070612
      dxz     :     0.009514
      dyz     :     0.010726
      dx2y2   :     0.022427
      dxy     :     0.022040

  7 C s       :     4.343632  s :     4.343632
      pz      :     1.011825  p :     3.626514
      px      :     1.117728
      py      :     1.496960
      dz2     :     0.004096  d :     0.056735
      dxz     :     0.004897
      dyz     :     0.011190
      dx2y2   :     0.020404
      dxy     :     0.016149

  8 C s       :     2.207860  s :     2.207860
      pz      :     0.867702  p :     2.339586
      px      :     0.295537
      py      :     1.176347
      dz2     :     0.005810  d :     0.067776
      dxz     :     0.008973
      dyz     :     0.010242
      dx2y2   :     0.019483
      dxy     :     0.023267

  9 C s       :     3.023012  s :     3.023012
      pz      :     0.927770  p :     2.639406
      px      :     0.742094
      py      :     0.969542
      dz2     :     0.005798  d :     0.058341
      dxz     :     0.009141
      dyz     :     0.006676
      dx2y2   :     0.019238
      dxy     :     0.017488

 10 C s       :     3.390640  s :     3.390640
      pz      :     0.962078  p :     2.807968
      px      :     0.957815
      py      :     0.888075
      dz2     :     0.004052  d :     0.058181
      dxz     :     0.005521
      dyz     :     0.010811
      dx2y2   :     0.020789
      dxy     :     0.017008

 11 C s       :     3.515637  s :     3.515637
      pz      :     0.973437  p :     3.095521
      px      :     1.138444
      py      :     0.983640
      dz2     :     0.005113  d :     0.057366
      dxz     :     0.007536
      dyz     :     0.007879
      dx2y2   :     0.016490
      dxy     :     0.020348

 12 C s       :     3.730159  s :     3.730159
      pz      :     0.918537  p :     3.188804
      px      :     1.309428
      py      :     0.960838
      dz2     :     0.032106  d :     0.143785
      dxz     :     0.020660
      dyz     :     0.029055
      dx2y2   :     0.028790
      dxy     :     0.033175

 13 O s       :     3.866412  s :     3.866412
      pz      :     1.466541  p :     4.400400
      px      :     1.533651
      py      :     1.400208
      dz2     :     0.002460  d :     0.015036
      dxz     :     0.001257
      dyz     :     0.005182
      dx2y2   :     0.003212
      dxy     :     0.002925

 14 C s       :     2.343182  s :     2.343182
      pz      :     0.901870  p :     2.208529
      px      :     0.409081
      py      :     0.897578
      dz2     :     0.014216  d :     0.067986
      dxz     :     0.018869
      dyz     :     0.012068
      dx2y2   :     0.012292
      dxy     :     0.010541

 15 C s       :     3.505299  s :     3.505299
      pz      :     1.242559  p :     3.387118
      px      :     1.117121
      py      :     1.027438
      dz2     :     0.016415  d :     0.058198
      dxz     :     0.013175
      dyz     :     0.011477
      dx2y2   :     0.006361
      dxy     :     0.010770

 16 C s       :     3.346508  s :     3.346508
      pz      :     1.019552  p :     2.929331
      px      :     0.929797
      py      :     0.979982
      dz2     :     0.012055  d :     0.057865
      dxz     :     0.012855
      dyz     :     0.011925
      dx2y2   :     0.011048
      dxy     :     0.009983

 17 C s       :     3.225998  s :     3.225998
      pz      :     0.978026  p :     2.885615
      px      :     0.990261
      py      :     0.917327
      dz2     :     0.011729  d :     0.058832
      dxz     :     0.016147
      dyz     :     0.010379
      dx2y2   :     0.011276
      dxy     :     0.009302

 18 C s       :     3.349716  s :     3.349716
      pz      :     0.871882  p :     2.827286
      px      :     0.966064
      py      :     0.989341
      dz2     :     0.016201  d :     0.057980
      dxz     :     0.013030
      dyz     :     0.011171
      dx2y2   :     0.006573
      dxy     :     0.011005

 19 C s       :     3.103389  s :     3.103389
      pz      :     0.914019  p :     2.609184
      px      :     0.739807
      py      :     0.955358
      dz2     :     0.011969  d :     0.057963
      dxz     :     0.011846
      dyz     :     0.012468
      dx2y2   :     0.011254
      dxy     :     0.010427

 20 H s       :     0.810537  s :     0.810537
      pz      :     0.004605  p :     0.022788
      px      :     0.006717
      py      :     0.011467

 21 H s       :     0.817989  s :     0.817989
      pz      :     0.008979  p :     0.022624
      px      :     0.006724
      py      :     0.006922

 22 H s       :     0.807219  s :     0.807219
      pz      :     0.005471  p :     0.022618
      px      :     0.011831
      py      :     0.005316

 23 H s       :     0.581603  s :     0.581603
      pz      :     0.014890  p :     0.063317
      px      :     0.016309
      py      :     0.032118

 24 H s       :     0.798583  s :     0.798583
      pz      :     0.006566  p :     0.025614
      px      :     0.014620
      py      :     0.004427

 25 H s       :     0.810202  s :     0.810202
      pz      :     0.005404  p :     0.025205
      px      :     0.005859
      py      :     0.013942

 26 H s       :     0.807109  s :     0.807109
      pz      :     0.006653  p :     0.024947
      px      :     0.013937
      py      :     0.004358

 27 H s       :     0.800304  s :     0.800304
      pz      :     0.005865  p :     0.025070
      px      :     0.008167
      py      :     0.011038

 28 H s       :     0.795548  s :     0.795548
      pz      :     0.004723  p :     0.025390
      px      :     0.011408
      py      :     0.009260

 29 H s       :     0.812385  s :     0.812385
      pz      :     0.011787  p :     0.024925
      px      :     0.004695
      py      :     0.008443

 30 H s       :     0.809887  s :     0.809887
      pz      :     0.010415  p :     0.024780
      px      :     0.009499
      py      :     0.004867

 31 H s       :     0.811113  s :     0.811113
      pz      :     0.004509  p :     0.024900
      px      :     0.010932
      py      :     0.009459

 32 H s       :     0.813890  s :     0.813890
      pz      :     0.011793  p :     0.025299
      px      :     0.004900
      py      :     0.008605



                     *******************************
                     * LOEWDIN POPULATION ANALYSIS *
                     *******************************

----------------------
LOEWDIN ATOMIC CHARGES
----------------------
   0 H :    0.119130
   1 C :   -0.111367
   2 C :   -0.083292
   3 C :    0.022512
   4 O :   -0.060124
   5 O :   -0.233796
   6 C :   -0.119656
   7 C :   -0.024849
   8 C :   -0.103686
   9 C :   -0.015909
  10 C :   -0.045423
  11 C :   -0.036767
  12 C :    0.026983
  13 O :   -0.230175
  14 C :   -0.114598
  15 C :   -0.035684
  16 C :   -0.060449
  17 C :   -0.046030
  18 C :   -0.060365
  19 C :   -0.022243
  20 H :    0.071581
  21 H :    0.074559
  22 H :    0.078284
  23 H :    0.157006
  24 H :    0.110288
  25 H :    0.100091
  26 H :    0.087491
  27 H :    0.102850
  28 H :    0.100257
  29 H :    0.085204
  30 H :    0.084802
  31 H :    0.084732
  32 H :    0.098645

-------------------------------
LOEWDIN REDUCED ORBITAL CHARGES
-------------------------------
  0 H s       :     0.809480  s :     0.809480
      pz      :     0.016848  p :     0.071390
      px      :     0.041788
      py      :     0.012754

  1 C s       :     2.777526  s :     2.777526
      pz      :     1.060160  p :     3.183333
      px      :     1.072950
      py      :     1.050223
      dz2     :     0.028108  d :     0.150508
      dxz     :     0.026287
      dyz     :     0.041950
      dx2y2   :     0.029728
      dxy     :     0.024434

  2 C s       :     2.789998  s :     2.789998
      pz      :     1.033964  p :     3.197656
      px      :     1.091347
      py      :     1.072346
      dz2     :     0.022130  d :     0.095638
      dxz     :     0.018315
      dyz     :     0.023443
      dx2y2   :     0.015560
      dxy     :     0.016191

  3 C s       :     2.776277  s :     2.776277
      pz      :     0.930291  p :     2.790330
      px      :     0.802800
      py      :     1.057239
      dz2     :     0.063084  d :     0.410882
      dxz     :     0.035241
      dyz     :     0.143985
      dx2y2   :     0.072573
      dxy     :     0.095998

  4 O s       :     3.384026  s :     3.384026
      pz      :     1.614200  p :     4.657596
      px      :     1.683495
      py      :     1.359901
      dz2     :     0.004539  d :     0.018502
      dxz     :     0.004184
      dyz     :     0.003844
      dx2y2   :     0.004444
      dxy     :     0.001492

  5 O s       :     3.508893  s :     3.508893
      pz      :     1.690404  p :     4.701919
      px      :     1.524992
      py      :     1.486523
      dz2     :     0.003611  d :     0.022984
      dxz     :     0.000031
      dyz     :     0.004291
      dx2y2   :     0.010551
      dxy     :     0.004500

  6 C s       :     2.787129  s :     2.787129
      pz      :     0.979719  p :     3.171551
      px      :     1.109656
      py      :     1.082176
      dz2     :     0.013191  d :     0.160976
      dxz     :     0.020983
      dyz     :     0.021972
      dx2y2   :     0.052564
      dxy     :     0.052265

  7 C s       :     2.778920  s :     2.778920
      pz      :     0.956639  p :     3.114816
      px      :     1.063971
      py      :     1.094207
      dz2     :     0.008987  d :     0.131113
      dxz     :     0.009032
      dyz     :     0.023652
      dx2y2   :     0.048312
      dxy     :     0.041129

  8 C s       :     2.772825  s :     2.772825
      pz      :     0.987993  p :     3.171376
      px      :     1.095909
      py      :     1.087474
      dz2     :     0.013776  d :     0.159486
      dxz     :     0.020204
      dyz     :     0.021818
      dx2y2   :     0.048109
      dxy     :     0.055578

  9 C s       :     2.783945  s :     2.783945
      pz      :     0.936674  p :     3.099696
      px      :     1.076656
      py      :     1.086366
      dz2     :     0.011704  d :     0.132269
      dxz     :     0.020408
      dyz     :     0.013116
      dx2y2   :     0.044938
      dxy     :     0.042103

 10 C s       :     2.791659  s :     2.791659
      pz      :     0.956614  p :     3.121921
      px      :     1.055119
      py      :     1.110188
      dz2     :     0.008858  d :     0.131844
      dxz     :     0.009764
      dyz     :     0.022899
      dx2y2   :     0.048091
      dxy     :     0.042232

 11 C s       :     2.784950  s :     2.784950
      pz      :     0.947994  p :     3.120063
      px      :     1.074611
      py      :     1.097458
      dz2     :     0.010781  d :     0.131755
      dxz     :     0.016834
      dyz     :     0.015649
      dx2y2   :     0.041138
      dxy     :     0.047354

 12 C s       :     2.780646  s :     2.780646
      pz      :     0.938860  p :     2.879605
      px      :     0.902466
      py      :     1.038279
      dz2     :     0.062167  d :     0.312767
      dxz     :     0.043843
      dyz     :     0.072886
      dx2y2   :     0.066447
      dxy     :     0.067424

 13 O s       :     3.504579  s :     3.504579
      pz      :     1.555627  p :     4.702770
      px      :     1.578331
      py      :     1.568812
      dz2     :     0.003001  d :     0.022825
      dxz     :     0.001724
      dyz     :     0.008934
      dx2y2   :     0.005538
      dxy     :     0.003628

 14 C s       :     2.773404  s :     2.773404
      pz      :     1.068904  p :     3.181167
      px      :     1.056412
      py      :     1.055852
      dz2     :     0.033312  d :     0.160027
      dxz     :     0.043682
      dyz     :     0.030044
      dx2y2   :     0.026303
      dxy     :     0.026686

 15 C s       :     2.784202  s :     2.784202
      pz      :     1.082535  p :     3.119283
      px      :     1.043725
      py      :     0.993023
      dz2     :     0.037381  d :     0.132199
      dxz     :     0.032815
      dyz     :     0.027198
      dx2y2   :     0.013333
      dxy     :     0.021471

 16 C s       :     2.794724  s :     2.794724
      pz      :     1.051704  p :     3.134725
      px      :     1.065205
      py      :     1.017816
      dz2     :     0.026888  d :     0.131000
      dxz     :     0.031529
      dyz     :     0.024115
      dx2y2   :     0.023750
      dxy     :     0.024718

 17 C s       :     2.798164  s :     2.798164
      pz      :     1.054399  p :     3.115385
      px      :     1.039335
      py      :     1.021651
      dz2     :     0.026892  d :     0.132481
      dxz     :     0.033725
      dyz     :     0.025303
      dx2y2   :     0.023563
      dxy     :     0.022997

 18 C s       :     2.795073  s :     2.795073
      pz      :     1.081394  p :     3.134088
      px      :     1.037064
      py      :     1.015631
      dz2     :     0.036732  d :     0.131203
      dxz     :     0.031912
      dyz     :     0.027100
      dx2y2   :     0.013664
      dxy     :     0.021796

 19 C s       :     2.786393  s :     2.786393
      pz      :     1.057644  p :     3.104572
      px      :     1.052132
      py      :     0.994795
      dz2     :     0.026481  d :     0.131279
      dxz     :     0.029599
      dyz     :     0.025518
      dx2y2   :     0.024276
      dxy     :     0.025405

 20 H s       :     0.859100  s :     0.859100
      pz      :     0.013105  p :     0.069319
[...]
      dyz     :     0.070825
      dx2y2   :     0.064913
      dxy     :     0.069157

 13 O s       :     3.505476  s :     3.505476
      pz      :     1.542788  p :     4.698069
      px      :     1.594832
      py      :     1.560448
      dz2     :     0.003050  d :     0.022879
      dxz     :     0.001755
      dyz     :     0.009130
      dx2y2   :     0.005442
      dxy     :     0.003501

 14 C s       :     2.777214  s :     2.777214
      pz      :     1.071774  p :     3.179008
      px      :     1.065866
      py      :     1.041368
      dz2     :     0.033522  d :     0.157800
      dxz     :     0.046636
      dyz     :     0.026840
      dx2y2   :     0.025294
      dxy     :     0.025507

 15 C s       :     2.783951  s :     2.783951
      pz      :     1.088584  p :     3.121009
      px      :     1.048325
      py      :     0.984100
      dz2     :     0.039223  d :     0.132425
      dxz     :     0.034071
      dyz     :     0.026944
      dx2y2   :     0.012657
      dxy     :     0.019531

 16 C s       :     2.793416  s :     2.793416
      pz      :     1.057996  p :     3.135675
      px      :     1.072678
      py      :     1.005001
      dz2     :     0.028996  d :     0.131323
      dxz     :     0.034551
      dyz     :     0.021639
      dx2y2   :     0.022608
      dxy     :     0.023528

 17 C s       :     2.798169  s :     2.798169
      pz      :     1.063509  p :     3.114907
      px      :     1.050878
      py      :     1.000520
      dz2     :     0.028671  d :     0.131766
      dxz     :     0.037546
      dyz     :     0.022814
      dx2y2   :     0.021698
      dxy     :     0.021037

 18 C s       :     2.793929  s :     2.793929
      pz      :     1.088489  p :     3.134758
      px      :     1.045740
      py      :     1.000529
      dz2     :     0.038693  d :     0.131468
      dxz     :     0.034939
      dyz     :     0.025553
      dx2y2   :     0.012998
      dxy     :     0.019284

 19 C s       :     2.785233  s :     2.785233
      pz      :     1.063758  p :     3.107219
      px      :     1.063337
      py      :     0.980124
      dz2     :     0.029010  d :     0.131968
      dxz     :     0.032356
      dyz     :     0.022230
      dx2y2   :     0.023385
      dxy     :     0.024988

 20 H s       :     0.859554  s :     0.859554
      pz      :     0.013389  p :     0.068980
      px      :     0.018720
      py      :     0.036871

 21 H s       :     0.856363  s :     0.856363
      pz      :     0.022324  p :     0.068993
      px      :     0.024040
      py      :     0.022629

 22 H s       :     0.851739  s :     0.851739
      pz      :     0.020391  p :     0.069788
      px      :     0.035403
      py      :     0.013994

 23 H s       :     0.663828  s :     0.663828
      pz      :     0.032801  p :     0.183964
      px      :     0.068641
      py      :     0.082522

 24 H s       :     0.818707  s :     0.818707
      pz      :     0.018226  p :     0.073023
      px      :     0.042542
      py      :     0.012255

 25 H s       :     0.830776  s :     0.830776
      pz      :     0.014084  p :     0.072076
      px      :     0.016697
      py      :     0.041294

 26 H s       :     0.843314  s :     0.843314
      pz      :     0.017869  p :     0.070749
      px      :     0.040694
      py      :     0.012187

 27 H s       :     0.827713  s :     0.827713
      pz      :     0.015361  p :     0.071481
      px      :     0.022511
      py      :     0.033609

 28 H s       :     0.828123  s :     0.828123
      pz      :     0.013132  p :     0.072771
      px      :     0.035581
      py      :     0.024059

 29 H s       :     0.844803  s :     0.844803
      pz      :     0.036043  p :     0.070861
      px      :     0.013213
      py      :     0.021605

 30 H s       :     0.845325  s :     0.845325
      pz      :     0.030264  p :     0.070724
      px      :     0.027293
      py      :     0.013167

 31 H s       :     0.845309  s :     0.845309
      pz      :     0.012695  p :     0.070820
      px      :     0.034328
      py      :     0.023797

 32 H s       :     0.831817  s :     0.831817
      pz      :     0.037032  p :     0.071972
      px      :     0.013129
      py      :     0.021811



                      *****************************
                      * MAYER POPULATION ANALYSIS *
                      *****************************

  NA   - Mulliken gross atomic population
  ZA   - Total nuclear charge
  QA   - Mulliken gross atomic charge
  VA   - Mayer's total valence
  BVA  - Mayer's bonded valence
  FA   - Mayer's free valence

  ATOM       NA         ZA         QA         VA         BVA        FA
  0 H      0.8084     1.0000     0.1916     0.9512     0.9512     0.0000
  1 C      5.9526     6.0000     0.0474     3.0013     3.0013     0.0000
  2 C      6.6858     6.0000    -0.6858     3.9389     3.9389     0.0000
  3 C      6.1181     6.0000    -0.1181     4.2014     4.2014    -0.0000
  4 O      8.2004     8.0000    -0.2004     2.0678     2.0678    -0.0000
  5 O      8.3325     8.0000    -0.3325     1.9817     1.9817     0.0000
  6 C      4.7327     6.0000     1.2673     1.8878     1.8878    -0.0000
  7 C      8.2911     6.0000    -2.2911     6.4649     6.4649     0.0000
  8 C      4.5624     6.0000     1.4376     1.9085     1.9085    -0.0000
  9 C      5.7086     6.0000     0.2914     2.7500     2.7500    -0.0000
 10 C      6.4222     6.0000    -0.4222     3.5828     3.5828    -0.0000
 11 C      6.0829     6.0000    -0.0829     3.6762     3.6762    -0.0000
 12 C      7.0986     6.0000    -1.0986     3.9940     3.9940     0.0000
 13 O      8.2903     8.0000    -0.2903     1.8825     1.8825    -0.0000
 14 C      4.5557     6.0000     1.4443     2.1215     2.1215    -0.0000
 15 C      6.8961     6.0000    -0.8961     5.1185     5.1185     0.0000
 16 C      6.3064     6.0000    -0.3064     3.8192     3.8192     0.0000
 17 C      6.1669     6.0000    -0.1669     3.9701     3.9701     0.0000
 18 C      6.1948     6.0000    -0.1948     3.6785     3.6785    -0.0000
 19 C      5.9156     6.0000     0.0844     3.2473     3.2473     0.0000
 20 H      0.8363     1.0000     0.1637     0.9422     0.9422    -0.0000
 21 H      0.8403     1.0000     0.1597     0.9472     0.9472     0.0000
 22 H      0.8172     1.0000     0.1828     0.9378     0.9378    -0.0000
 23 H      0.6845     1.0000     0.3155     0.9559     0.9559    -0.0000
 24 H      0.8238     1.0000     0.1762     0.9607     0.9607    -0.0000
 25 H      0.8373     1.0000     0.1627     0.9632     0.9632     0.0000
 26 H      0.8335     1.0000     0.1665     0.9499     0.9499    -0.0000
 27 H      0.8317     1.0000     0.1683     0.9647     0.9647    -0.0000
 28 H      0.8238     1.0000     0.1762     0.9549     0.9549     0.0000
 29 H      0.8376     1.0000     0.1624     0.9566     0.9566     0.0000
 30 H      0.8344     1.0000     0.1656     0.9540     0.9540    -0.0000
 31 H      0.8361     1.0000     0.1639     0.9536     0.9536     0.0000
 32 H      0.8415     1.0000     0.1585     0.9681     0.9681     0.0000

  Mayer bond orders larger than 0.100000
B(  0-H ,  1-C ) :   1.0820 B(  0-H ,  6-C ) :  -0.4595 B(  0-H ,  7-C ) :   0.3553 
B(  1-C ,  2-C ) :   0.9214 B(  1-C ,  3-C ) :   0.8445 B(  1-C ,  4-O ) :  -0.2559 
B(  1-C ,  7-C ) :   0.4470 B(  2-C ,  6-C ) :  -0.4341 B(  2-C ,  7-C ) :   0.2600 
B(  2-C , 11-C ) :   0.2234 B(  2-C , 20-H ) :   0.9787 B(  2-C , 21-H ) :   1.0018 
B(  2-C , 22-H ) :   0.9697 B(  3-C ,  4-O ) :   1.3549 B(  3-C ,  5-O ) :   2.0666 
B(  3-C ,  6-C ) :  -0.2651 B(  3-C , 11-C ) :   0.2217 B(  4-O ,  6-C ) :   0.6378 
B(  4-O ,  7-C ) :  -0.3560 B(  4-O , 11-C ) :  -0.1587 B(  4-O , 23-H ) :   0.8616 
B(  5-O ,  7-C ) :   0.1529 B(  5-O , 11-C ) :  -0.2464 B(  6-C ,  7-C ) :   0.7783 
B(  6-C ,  8-C ) :   0.3606 B(  6-C , 10-C ) :   0.2422 B(  6-C , 11-C ) :   1.4928 
B(  6-C , 12-C ) :  -0.1652 B(  6-C , 14-C ) :   0.4118 B(  6-C , 16-C ) :   0.3199 
B(  6-C , 18-C ) :   0.1454 B(  6-C , 19-C ) :  -0.8618 B(  6-C , 21-H ) :  -0.1144 
B(  6-C , 23-H ) :   0.1126 B(  7-C ,  8-C ) :   0.4913 B(  7-C ,  9-C ) :   0.3086 
B(  7-C , 11-C ) :   0.4130 B(  7-C , 12-C ) :   1.8770 B(  7-C , 14-C ) :  -0.4183 
B(  7-C , 15-C ) :   1.6574 B(  7-C , 17-C ) :   0.1687 B(  7-C , 18-C ) :  -0.3347 
B(  7-C , 19-C ) :  -0.2260 B(  7-C , 24-H ) :   0.8405 B(  8-C ,  9-C ) :   1.6804 
B(  8-C , 11-C ) :   0.1477 B(  8-C , 12-C ) :  -0.3582 B(  8-C , 14-C ) :   0.4305 
B(  8-C , 15-C ) :  -0.5124 B(  8-C , 16-C ) :   0.2373 B(  8-C , 17-C ) :  -0.1460 
B(  8-C , 18-C ) :   0.1663 B(  8-C , 19-C ) :  -0.6175 B(  9-C , 10-C ) :   1.1170 
B(  9-C , 11-C ) :  -0.4471 B(  9-C , 12-C ) :  -0.5945 B(  9-C , 14-C ) :  -0.7485 
B(  9-C , 15-C ) :  -0.5701 B(  9-C , 16-C ) :  -0.5374 B(  9-C , 17-C ) :   0.1126 
B(  9-C , 19-C ) :   1.4740 B(  9-C , 25-H ) :   0.8839 B( 10-C , 11-C ) :   1.1842 
B( 10-C , 14-C ) :   0.1971 B( 10-C , 15-C ) :  -0.1375 B( 10-C , 16-C ) :   0.1376 
B( 10-C , 19-C ) :  -0.2254 B( 10-C , 26-H ) :   1.0156 B( 11-C , 14-C ) :  -0.1415 
B( 11-C , 19-C ) :   0.1061 B( 11-C , 27-H ) :   0.8511 B( 12-C , 13-O ) :   1.8506 
B( 12-C , 14-C ) :  -0.1172 B( 12-C , 15-C ) :   1.3080 B( 12-C , 16-C ) :   0.1325 
B( 12-C , 18-C ) :  -0.1463 B( 12-C , 32-H ) :   0.1482 B( 14-C , 15-C ) :   1.0955 
B( 14-C , 16-C ) :  -0.1143 B( 14-C , 19-C ) :   1.5917 B( 15-C , 16-C ) :   1.3833 
B( 15-C , 28-H ) :   0.9527 B( 16-C , 17-C ) :   1.4157 B( 16-C , 29-H ) :   0.9916 
B( 17-C , 18-C ) :   1.4542 B( 17-C , 19-C ) :   0.1382 B( 17-C , 30-H ) :   0.9507 
B( 18-C , 19-C ) :   1.3339 B( 18-C , 31-H ) :   1.0067 B( 19-C , 31-H ) :  -0.1064 
B( 19-C , 32-H ) :   0.9245 

-------
TIMINGS
-------

Total SCF time: 0 days 0 hours 2 min 6 sec 

Total time                  ....     126.149 sec
Sum of individual times     ....     126.081 sec  ( 99.9%)

SCF preparation             ....       0.357 sec  (  0.3%)
Fock matrix formation       ....     125.420 sec  ( 99.4%)
  Startup                   ....       0.012 sec  (  0.0% of F)
  Split-RI-J                ....       4.826 sec  (  3.8% of F)
  Chain of spheres X        ....     104.202 sec  ( 83.1% of F)
  XC integration            ....       8.822 sec  (  7.0% of F)
    Basis function eval.    ....       1.871 sec  ( 21.2% of XC)
    Density eval.           ....       2.744 sec  ( 31.1% of XC)
    XC-Functional eval.     ....       0.132 sec  (  1.5% of XC)
    XC-Potential eval.      ....       3.889 sec  ( 44.1% of XC)
  CPCM terms                ....       7.519 sec  (  6.0% of F)
Diagonalization             ....       0.000 sec  (  0.0%)
Density matrix formation    ....       0.020 sec  (  0.0%)
Total Energy calculation    ....       0.014 sec  (  0.0%)
Population analysis         ....       0.068 sec  (  0.1%)
Orbital Transformation      ....       0.037 sec  (  0.0%)
Orbital Orthonormalization  ....       0.000 sec  (  0.0%)
DIIS solution               ....       0.043 sec  (  0.0%)
SOSCF solution              ....       0.122 sec  (  0.1%)
Finished LeanSCF after 126.3 sec

Maximum memory used throughout the entire LEANSCF-calculation: 111.1 MB

-------------------------   --------------------
FINAL SINGLE POINT ENERGY      -843.586991627450
-------------------------   --------------------

                                *** OPTIMIZATION RUN DONE ***


------------------------------------------------------------------------------
                              ORCA PROPERTY CALCULATIONS
------------------------------------------------------------------------------

GBWName                                 ... Dexketoprofen\Dexketoprofen_B3LYP_6-311+G\Dexketoprofen_B3LYP_6-311+G.orcainp.gbw
Number of atoms                         ...     33
Number of basis functions               ...    502
Max core memory                         ...   1024 MB

Electric properties:
Dipole moment                           ... YES
Quadrupole moment                       ...  NO
Static polarizability (Dipole/Dipole)   ...  NO
Static polarizability (Dipole/Quad.)    ...  NO
Static polarizability (Quad./Quad.)     ...  NO
Static polarizability (Velocity)        ...  NO

Atomic electric properties:
Dipole moment                           ...  NO
Quadrupole moment                       ...  NO
Static polarizability                   ...  NO

Choice of electric origin               ... Center of mass
Position of electric origin             ...     3.661900    -5.489679     1.461925

General magnetic properties:
Magnetizability                         ...  NO

EPR properties:
g-Tensor (aka g-matrix)                 ...  NO
Zero-Field splitting spin-orbit         ...  NO
Zero-field splitting spin-spin          ...  NO
Hyperfine couplings                     ...  NO (   0 nuclei)
Quadrupole couplings                    ...  NO (   0 nuclei)
Contact density                         ...  NO (   0 nuclei)

NMR properties:
Chemical shifts                         ...  NO (   0 nuclei)
Spin-rotation constants                 ...  NO (   0 nuclei)
Spin-spin couplings                     ...  NO (   0 nuclei,    0 pairs)

Choice of magnetic origin               ... GIAO
Position of magnetic origin             ...     0.000000     0.000000     0.000000

Properties with geometric perturbations:
SCF Hessian                             ...  NO
IR spectrum                             ...  NO
VCD spectrum                            ...  NO
X-ray spectroscopy properties:
SCF XES/XAS/RIXS spectra                ...  NO


-------------
DIPOLE MOMENT
-------------

Method             : SCF
Type of density    : Electron Density
Multiplicity       :   1
Irrep              :   0
Energy             :  -843.5869916274499474 Eh
Relativity type    : 
Basis              : AO
                                X                 Y                 Z
Electronic contribution:      2.843464421      -3.977155690       2.117953901
Nuclear contribution   :     -4.596878949       3.722077553      -1.113864661
                        -----------------------------------------
Total Dipole Moment    :     -1.753414528      -0.255078137       1.004089240
                        -----------------------------------------
Magnitude (a.u.)       :      2.036595828
Magnitude (Debye)      :      5.176615202



--------------------
Rotational spectrum 
--------------------
 
Rotational constants in cm-1:             0.020872             0.007117             0.005927 
Rotational constants in MHz :           625.732638           213.367991           177.676750 

Dipole components along the rotational axes: 
x,y,z [a.u.] :     1.292550     1.478357     0.539906 
x,y,z [Debye]:     3.285401     3.757684     1.372331 

 

Dipole moment calculation done in   0.0 sec 

Maximum memory used throughout the entire PROP-calculation: 45.0 MB

--------------------------------
SUGGESTED CITATIONS FOR THIS RUN
--------------------------------

Below you find a list of papers that are relevant to this ORCA run
We neither can nor want to force you to cite these papers, but we appreciate if you do
You receive ORCA, which is the product of decades of hard work by many enthusiastic individuals, for free
The only thing we kindly ask in return is that you cite our papers,
We deeply appreciate it, if you show your appreciation for ORCA by not just citing the generic ORCA reference.

Please note that relegating all ORCA citations to the supporting information does *not* help us.
SI sections are not indexed - citations you put there will not count into any citation statistics
But we need these citations in order to attract the funding resources that allow us to do what we are doing

Therefore, if you are a happy ORCA user, please consider citing a few of the papers listed below in the main body of your paper

In addition to the list printed below, the program has created the file Dexketoprofen\Dexketoprofen_B3LYP_6-311+G\Dexketoprofen_B3LYP_6-311+G.orcainp.bibtex that contains the list in bibtex format
You can import this file easily into all common literature databanks and citation aid programs


List of essential papers. We consider these as the minimum necessary citations

  1. Neese,F.
     Software update: the ORCA program system, version 5.0
     WIRES Comput. Molec. Sci., 2022 12(1)e1606
     doi.org/10.1002/wcms.1606

List of papers to cite with high priority. The work reported in these papers was absolutely
necessary for this run to complete.
Our perspective: the developers of density functionals and basis sets usually get cited in chemistry papers
Good! But without the algorithms to do something with them, the functionals or basis sets would not do anything.
Hence, in our opinion, the algorithm design and method developments papers are equally worthy of getting cited

  1. Neese,F.
     An improvement of the resolution of the identity approximation for the formation of the Coulomb matrix
     J. Comp. Chem., 2003 24(14)1740-1747
     doi.org/10.1002/jcc.10318
  2. Neese,F.; Wennmohs,F.; Hansen,A.; Becker,U.
     Efficient, approximate and parallel Hartree-Fock and hybrid DFT calculations. A 'chain-of-spheres' algorithm for the Hartree-Fock exchange
     Chem. Phys., 2009 356(1-3)98-109
     doi.org/10.1016/j.chemphys.2008.10.036
  3. Garcia-Rates,M.; Neese,F.
     Effect of the Solute Cavity on the Solvation Energy and its Derivatives within the Framework of the Gaussian Charge Scheme
     J. Comput. Chem., 2020 41 922-939
     doi.org/10.1002/jcc.26139
  4. Helmich-Paris,B.; de Souza,B.; Neese,F.; Izsák,R.
     An improved chain of spheres for exchange algorithm
     J. Chem. Phys., 2021 155 104109
     doi.org/doi: 10.1063/5.0058766.
  5. Neese,F.
     The SHARK Integral Generation and Digestion System
     J. Comp. Chem., 2022  1-16
     doi.org/10.1002/jcc.26942

List of suggested additional citations. These are papers that are important in the 'surrounding' of 
of this run, or papers that preceded the highly important papers. If you like your results we are grateful for a citation.

  1. Izsak,R.; Neese,F.
     An overlap fitted chain of spheres exchange method
     J. Chem. Phys., 2011 135 144105
     doi.org/10.1063/1.3646921
  2. Izsak,R.; Hansen,A.; Neese,F.
     The resolution of identity and chain of spheres approximations for the LPNO-CCSD singles Fock term
     Molec. Phys., 2012 110 2413-2417
     doi.org/10.1080/00268976.2012.687466
  3. Neese,F.
     The ORCA program system
     WIRES Comput. Molec. Sci., 2012 2(1)73-78
     doi.org/10.1002/wcms.81
  4. Izsak,R.; Neese,F.; Klopper,W.
     Robust fitting techniques in the chain of spheres approximation to the Fock exchange: The role of the complementary space
     J. Chem. Phys., 2013 139 
     doi.org/10.1063/1.4819264
  5. Neese,F.
     Software update: the ORCA program system, version 4.0
     WIRES Comput. Molec. Sci., 2018 8(1)1-6
     doi.org/10.1002/wcms.1327
  6. Neese,F.; Wennmohs,F.; Becker,U.; Riplinger,C.
     The ORCA quantum chemistry program package
     J. Chem. Phys., 2020 152 Art. No. L224108
     doi.org/10.1063/5.0004608

List of optional additional citations

  1. Neese,F.
     Approximate second-order SCF convergence for spin unrestricted wavefunctions
     Chem. Phys. Lett., 2000 325(1-3)93-98
     doi.org/10.1016/s0009-2614(00)00662-x

Timings for individual modules:

Sum of individual times          ...     8997.120 sec (= 149.952 min)
Startup calculation              ...       75.716 sec (=   1.262 min)   0.8 %
SCF iterations                   ...     4776.330 sec (=  79.606 min)  53.1 %
Property calculations            ...        0.113 sec (=   0.002 min)   0.0 %
SCF Gradient evaluation          ...     4144.720 sec (=  69.079 min)  46.1 %
Geometry relaxation              ...        0.241 sec (=   0.004 min)   0.0 %
                             ****ORCA TERMINATED NORMALLY****
TOTAL RUN TIME: 0 days 2 hours 29 minutes 59 seconds 538 msec
