
                                 *****************
                                 * O   R   C   A *
                                 *****************

                                            #,                                       
                                            ###                                      
                                            ####                                     
                                            #####                                    
                                            ######                                   
                                           ########,                                 
                                     ,,################,,,,,                         
                               ,,#################################,,                 
                          ,,##########################################,,             
                       ,#########################################, ''#####,          
                    ,#############################################,,   '####,        
                  ,##################################################,,,,####,       
                ,###########''''           ''''###############################       
              ,#####''   ,,,,##########,,,,          '''####'''          '####       
            ,##' ,,,,###########################,,,                        '##       
           ' ,,###''''                  '''############,,,                           
         ,,##''                                '''############,,,,        ,,,,,,###''
      ,#''                                            '''#######################'''  
     '                                                          ''''####''''         
             ,#######,   #######,   ,#######,      ##                                
            ,#'     '#,  ##    ##  ,#'     '#,    #''#        ,####,   ,####,        
            ##       ##  ##   ,#'  ##            #'  '#       #'       #'  '#        
            ##       ##  #######   ##           ,######,      #####,   #    #        
            '#,     ,#'  ##    ##  '#,     ,#' ,#      #,     #,   #   #,  ,#        
             '#######'   ##     ##  '#######'  #'      '#     '####' # '####'        



                #########################################################
                #                        -***-                          #
                #          Department of theory and spectroscopy        #
                #                                                       #
                #                      Frank Neese                      #
                #                                                       #
                #     Directorship, Architecture, Infrastructure        #
                #                    SHARK, DRIVERS                     #
                #        Core code/Algorithms in most modules           #
                #                                                       #
                #        Max Planck Institute fuer Kohlenforschung      #
                #                Kaiser Wilhelm Platz 1                 #
                #                 D-45470 Muelheim/Ruhr                 #
                #                      Germany                          #
                #                                                       #
                #                  All rights reserved                  #
                #                        -***-                          #
                #########################################################


                         Program Version 6.0.0  -   RELEASE   -


 With contributions from (in alphabetic order):
   Daniel Aravena         : Magnetic Suceptibility
   Michael Atanasov       : Ab Initio Ligand Field Theory (pilot matlab implementation)
   Alexander A. Auer      : GIAO ZORA, VPT2 properties, NMR spectrum
   Ute Becker             : All parallelization in ORCA, NUMFREQ, NUMCALC
   Giovanni Bistoni       : ED, misc. LED, open-shell LED, HFLD
   Martin Brehm           : Molecular dynamics
   Dmytro Bykov           : pre 5.0 version of the SCF Hessian
   Marcos Casanova-Páez   : Triplet and SCS-CIS(D). UHF-(DLPNO)-IP/EA/STEOM-CCSD. UHF-CVS-IP/STEOM-CCSD
   Vijay G. Chilkuri      : MRCI spin determinant printing, contributions to CSF-ICE
   Pauline Colinet        : FMM embedding
   Dipayan Datta          : RHF DLPNO-CCSD density
   Achintya Kumar Dutta   : EOM-CC, STEOM-CC
   Nicolas Foglia         : Exact transition moments, OPA infrastructure, MCD improvements
   Dmitry Ganyushin       : Spin-Orbit,Spin-Spin,Magnetic field MRCI
   Miquel Garcia          : C-PCM and meta-GGA Hessian, CCSD/C-PCM, Gaussian charge scheme
   Tiago L. C. Gouveia    : GS-ROHF, GS-ROCIS
   Yang Guo               : DLPNO-NEVPT2, F12-NEVPT2, CIM, IAO-localization
   Andreas Hansen         : Spin unrestricted coupled pair/coupled cluster methods
   Ingolf Harden          : AUTO-CI MPn and infrastructure 
   Benjamin Helmich-Paris : MC-RPA, TRAH-(SCF,CASSCF), AVAS, COSX integrals, SCF dyn. polar.
   Lee Huntington         : MR-EOM, pCC
   Robert Izsak           : Overlap fitted RIJCOSX, COSX-SCS-MP3, EOM
   Riya Kayal             : Wick's Theorem for AUTO-CI, AUTO-CI UHF-CCSDT
   Emily Kempfer          : AUTO-CI, RHF CISDT and CCSDT
   Christian Kollmar      : KDIIS, OOCD, Brueckner-CCSD(T), CCSD density, CASPT2, CASPT2-K, improved NEVPT2
   Axel Koslowski         : Symmetry handling
   Simone Kossmann        : Meta GGA functionals, TD-DFT gradient, OOMP2, (MP2 Hessian; deprecated post 5.0)
   Lucas Lang             : DCDCAS
   Marvin Lechner         : AUTO-CI (C++ implementation), FIC-MRCC
   Spencer Leger          : CASSCF response
   Dagmar Lenk            : GEPOL surface, SMD, ORCA-2-JSON
   Dimitrios Liakos       : Extrapolation schemes; Compound Job, initial MDCI parallelization
   Dimitrios Manganas     : Further ROCIS development; embedding schemes. LFT, Crystal Embedding
   Dimitrios Pantazis     : SARC Basis sets
   Anastasios Papadopoulos: AUTO-CI, single reference methods and gradients
   Taras Petrenko         : pre 6.0 DFT Hessian and TD-DFT gradient, (ASA, deprecated), ECA, 1-Electron XAS/XES, NRVS
   Peter Pinski           : DLPNO-MP2, DLPNO-MP2 Gradient
   Christoph Reimann      : Effective Core Potentials
   Marius Retegan         : Local ZFS, SOC
   Christoph Riplinger    : Optimizer, TS searches, QM/MM, DLPNO-CCSD(T), (RO)-DLPNO pert. Triples
   Michael Roemelt        : Original ROCIS implementation
   Masaaki Saitow         : Open-shell DLPNO-CCSD energy and density
   Barbara Sandhoefer     : DKH picture change effects
   Kantharuban Sivalingam : CASSCF convergence/infrastructure, NEVPT2 and variants, FIC-MRCI
   Bernardo de Souza      : ESD, SOC TD-DFT
   Georgi Stoychev        : AutoAux, RI-MP2 NMR, DLPNO-MP2 response, X2C
   Van Anh Tran           : RI-MP2 g-tensors
   Willem Van den Heuvel  : Paramagnetic NMR
   Zikuan Wang            : NOTCH, Electric field optimization 
   Frank Wennmohs         : Technical directorship and infrastructure
   Hang Xu                : AUTO-CI-Response properties 


 We gratefully acknowledge several colleagues who have allowed us to
 interface, adapt or use parts of their codes:
   Stefan Grimme, W. Hujo, H. Kruse, P. Pracht,  : VdW corrections, initial TS optimization,
                  C. Bannwarth, S. Ehlert,         DFT functionals, gCP, sTDA/sTD-DF
                  L. Wittmann, M. Mueller
   Ed Valeev, F. Pavosevic, A. Kumar             : LibInt (2-el integral package), F12 methods
   Garnet Chan, S. Sharma, J. Yang, R. Olivares  : DMRG
   Ulf Ekstrom                                   : XCFun DFT Library
   Mihaly Kallay                                 : mrcc  (arbitrary order and MRCC methods)
   Frank Weinhold                                : gennbo (NPA and NBO analysis)
   Simon Mueller                                 : openCOSMO-RS
   Christopher J. Cramer and Donald G. Truhlar   : smd solvation model
   Lars Goerigk                                  : TD-DFT with DH, B97 family of functionals
   V. Asgeirsson, H. Jonsson                     : NEB implementation
   FAccTs GmbH                                   : IRC, NEB, NEB-TS, DLPNO-Multilevel, CI-OPT
                                                   MM, QMMM, 2- and 3-layer-ONIOM, Crystal-QMMM,
                                                   LR-CPCM, SF, NACMEs, symmetry and pop. for TD-DFT,
                                                   nearIR, NL-DFT gradient (VV10), updates on ESD,
                                                   ML-optimized integration grids, MBIS, APM,
                                                   GOAT, DOCKER, SOLVATOR, interface openCOSMO-RS
   S Lehtola, MJT Oliveira, MAL Marques          : LibXC Library
   Liviu Ungur et al                             : ANISO software


 Your calculation uses the libint2 library for the computation of 2-el integrals
 For citations please refer to: http://libint.valeyev.net

 Your ORCA version has been built with support for libXC version: 6.2.2
 For citations please refer to: https://libxc.gitlab.io

 This ORCA versions uses:
   CBLAS   interface :  Fast vector & matrix operations
   LAPACKE interface :  Fast linear algebra routines
   Shared memory     :  Shared parallel matrices


Warning: RI is on but no J-basis has been assigned. Assigning Def2/J (nothing to worry about!)
================================================================================

----- Orbital basis set information -----
Your calculation utilizes the basis: def2-TZVP
   F. Weigend and R. Ahlrichs, Phys. Chem. Chem. Phys. 7, 3297 (2005).

----- AuxJ basis set information -----
Your calculation utilizes the auxiliary basis: def2/J
   F. Weigend, Phys. Chem. Chem. Phys. 8, 1057 (2006).

================================================================================
                                        WARNINGS
                       Please study these warnings very carefully!
================================================================================


WARNING: Geometry Optimization
  ===> : Switching off AutoStart
         For restart on a previous wavefunction, please use MOREAD

================================================================================
                                       INPUT FILE
================================================================================
NAME = Ibuprofen\Ibuprofen_PBE_def2-TZVP\Ibuprofen_PBE_def2-TZVP.orcainp
|  1> # ORCA input file
|  2> # 
|  3> !PBE def2-TZVP Opt CPCM(WATER)
|  4> * xyz 0 1
|  5>    C        2.95021        -0.38900         1.26274
|  6>    C        2.52045        -1.27848         0.09338
|  7>    C        0.99553        -1.40741         0.07675
|  8>    C        3.03305        -0.73504        -1.25720
|  9>    C        4.54216        -0.63179        -1.32375
| 10>    C        5.34421        -1.77303        -1.21037
| 11>    C        6.73846        -1.66838        -1.22843
| 12>    C        7.36134        -0.42186        -1.38715
| 13>    C        6.55228         0.71875        -1.50569
| 14>    C        5.15995         0.61450        -1.47446
| 15>    C        8.87998        -0.34092        -1.48484
| 16>    C        9.28189         0.24772        -2.84195
| 17>    C        9.61173         0.40524        -0.37163
| 18>    O        8.87745         0.76600         0.70549
| 19>    O       10.81195         0.64384        -0.41318
| 20>    H        2.59304        -0.80141         2.21203
| 21>    H        2.55000         0.62512         1.15790
| 22>    H        4.04024        -0.31777         1.33342
| 23>    H        2.93334        -2.27988         0.25826
| 24>    H        0.51345        -0.43617        -0.07745
| 25>    H        0.63424        -1.81602         1.02656
| 26>    H        0.66784        -2.08146        -0.72144
| 27>    H        2.58341         0.24756        -1.45114
| 28>    H        2.69896        -1.38702        -2.07513
| 29>    H        4.88886        -2.75489        -1.10326
| 30>    H        7.32748        -2.57887        -1.13792
| 31>    H        6.99599         1.70432        -1.63567
| 32>    H        4.56054         1.51848        -1.56984
| 33>    H        9.27510        -1.36482        -1.43749
| 34>    H        8.93076         1.27903        -2.95691
| 35>    H        8.86386        -0.34431        -3.66356
| 36>    H       10.37078         0.26519        -2.96132
| 37>    H        7.93807         0.51129         0.66734
| 38> *
| 39> 
| 40>                          ****END OF INPUT****
================================================================================

                       *****************************
                       * Geometry Optimization Run *
                       *****************************

Geometry optimization settings:
Update method            Update   .... BFGS
Choice of coordinates    CoordSys .... (2022) Redundant Internals
Initial Hessian          InHess   .... Almloef's Model
Max. no of cycles        MaxIter  .... 99

Convergence Tolerances:
Energy Change            TolE     ....  5.0000e-06 Eh
Max. Gradient            TolMAXG  ....  3.0000e-04 Eh/bohr
RMS Gradient             TolRMSG  ....  1.0000e-04 Eh/bohr
Max. Displacement        TolMAXD  ....  4.0000e-03 bohr
RMS Displacement         TolRMSD  ....  2.0000e-03 bohr
Strict Convergence                .... False

------------------------------------------------------------------------------
                        ORCA OPTIMIZATION COORDINATE SETUP
------------------------------------------------------------------------------

The optimization will be done in redundant internal coordinates (2022)
Making redundant internal coordinates   ...  (2022 redundants) done
Evaluating the initial hessian          ...  (Almloef) done
Evaluating the coordinates              ...  done
Calculating the B-matrix                .... done
Calculating the G-matrix                .... done
Diagonalizing the G-matrix              .... done
Small eigenvalue found = 1.019e-02
Small eigenvalue found = 1.799e-02
Small eigenvalue found = 2.497e-02
Small eigenvalue found = 2.537e-02
The first mode is                       ....   64
The number of degrees of freedom        ....   93

    -----------------------------------------------------------------
                    Redundant Internal Coordinates


    -----------------------------------------------------------------
         Definition                    Initial Value    Approx d2E/dq
    -----------------------------------------------------------------
      1. B(C   1,C   0)                  1.5308         0.372513   
      2. B(C   2,C   1)                  1.5305         0.372956   
      3. B(C   3,C   1)                  1.5434         0.355601   
      4. B(C   4,C   3)                  1.5141         0.396044   
      5. B(C   5,C   4)                  1.3995         0.603393   
      6. B(C   6,C   5)                  1.3983         0.606059   
      7. B(C   7,C   6)                  1.4025         0.596772   
      8. B(C   8,C   7)                  1.4034         0.594715   
      9. B(C   9,C   8)                  1.3966         0.609882   
     10. B(C   9,C   4)                  1.3991         0.604147   
     11. B(C  10,C   7)                  1.5239         0.381999   
     12. B(C  11,C  10)                  1.5329         0.369619   
     13. B(C  12,C  10)                  1.5269         0.377842   
     14. B(O  13,C  12)                  1.3526         0.642036   
     15. B(O  14,C  12)                  1.2244         1.028160   
     16. B(H  15,C   0)                  1.0949         0.353677   
     17. B(H  16,C   0)                  1.0953         0.353206   
     18. B(H  17,C   0)                  1.0946         0.354015   
     19. B(H  18,C   1)                  1.0957         0.352693   
     20. B(H  19,C   2)                  1.0952         0.353273   
     21. B(H  20,C   2)                  1.0953         0.353186   
     22. B(H  21,C   2)                  1.0949         0.353661   
     23. B(H  22,C   3)                  1.0979         0.349854   
     24. B(H  23,C   3)                  1.0980         0.349613   
     25. B(H  24,C   5)                  1.0876         0.363294   
     26. B(H  25,C   6)                  1.0882         0.362520   
     27. B(H  26,C   8)                  1.0886         0.361913   
     28. B(H  27,C   9)                  1.0888         0.361640   
     29. B(H  28,C  10)                  1.0985         0.349011   
     30. B(H  29,C  11)                  1.0955         0.352904   
     31. B(H  30,C  11)                  1.0956         0.352796   
     32. B(H  31,C  11)                  1.0956         0.352829   
     33. B(H  32,H  17)                  4.0403         0.000001   
     34. B(H  32,O  13)                  0.9740         0.493805   
     35. A(C   1,C   0,H  15)          110.6012         0.323211   
     36. A(H  15,C   0,H  17)          107.0596         0.289245   
     37. A(C   1,C   0,H  17)          111.5122         0.323262   
     38. A(H  16,C   0,H  17)          108.0467         0.289185   
     39. A(C   1,C   0,H  16)          111.2422         0.323141   
     40. A(H  15,C   0,H  16)          108.2131         0.289141   
     41. A(C   0,C   1,C   3)          111.7539         0.360132   
     42. A(C   2,C   1,H  18)          107.4648         0.323127   
     43. A(C   2,C   1,C   3)          110.5529         0.360205   
     44. A(C   3,C   1,H  18)          109.1678         0.320615   
     45. A(C   0,C   1,H  18)          108.0788         0.323064   
     46. A(C   0,C   1,C   2)          109.6932         0.363072   
     47. A(C   1,C   2,H  19)          111.4324         0.323214   
     48. A(H  20,C   2,H  21)          107.6854         0.289137   
     49. A(C   1,C   2,H  20)          110.5286         0.323201   
     50. A(H  19,C   2,H  21)          108.1533         0.289148   
     51. A(C   1,C   2,H  21)          110.9766         0.323272   
     52. A(H  19,C   2,H  20)          107.9229         0.289087   
     53. A(C   1,C   3,H  23)          109.9811         0.320156   
     54. A(C   4,C   3,H  22)          109.8411         0.325897   
     55. A(H  22,C   3,H  23)          105.9756         0.288188   
     56. A(C   1,C   3,C   4)          113.1722         0.363917   
     57. A(C   1,C   3,H  22)          109.4931         0.320192   
     58. A(C   4,C   3,H  23)          108.1198         0.325860   
     59. A(C   5,C   4,C   9)          118.8196         0.429947   
     60. A(C   3,C   4,C   5)          120.8000         0.398868   
     61. A(C   3,C   4,C   9)          120.3691         0.398956   
     62. A(C   4,C   5,C   6)          120.6219         0.430191   
     63. A(C   6,C   5,H  24)          119.0979         0.352079   
     64. A(C   4,C   5,H  24)          120.2799         0.351817   
     65. A(C   5,C   6,C   7)          120.7185         0.429340   
     66. A(C   7,C   6,H  25)          120.8421         0.351035   
     67. A(C   5,C   6,H  25)          118.4266         0.351952   
     68. A(C   8,C   7,C  10)          121.7292         0.395340   
     69. A(C   6,C   7,C  10)          119.8045         0.395580   
     70. A(C   6,C   7,C   8)          118.4162         0.427888   
     71. A(C   9,C   8,H  26)          118.4633         0.352227   
     72. A(C   7,C   8,C   9)          120.8090         0.429559   
     73. A(C   7,C   8,H  26)          120.7241         0.350731   
     74. A(C   4,C   9,C   8)          120.6042         0.430774   
     75. A(C   4,C   9,H  27)          120.3900         0.351620   
     76. A(C   8,C   9,H  27)          119.0058         0.352182   
     77. A(C   7,C  10,C  11)          109.7811         0.364076   
     78. A(C  12,C  10,H  28)          104.5771         0.323260   
     79. A(C  11,C  10,H  28)          107.5644         0.322096   
     80. A(C   7,C  10,H  28)          107.8285         0.323841   
     81. A(C  11,C  10,C  12)          109.3994         0.363396   
     82. A(C   7,C  10,C  12)          117.1803         0.365449   
     83. A(H  30,C  11,H  31)          107.8271         0.288980   
     84. A(H  29,C  11,H  31)          106.9853         0.288994   
     85. A(C  10,C  11,H  31)          111.2958         0.322671   
     86. A(H  29,C  11,H  30)          107.9222         0.288990   
     87. A(C  10,C  11,H  30)          110.8782         0.322666   
     88. A(C  10,C  11,H  29)          111.7386         0.322682   
     89. A(O  13,C  12,O  14)          120.4769         0.472599   
     90. A(C  10,C  12,O  14)          122.7010         0.432046   
     91. A(C  10,C  12,O  13)          116.7921         0.397365   
     92. A(C  12,O  13,H  32)          114.9996         0.369057   
     93. D(C   3,C   1,C   0,H  15)   -178.9388         0.011084   
     94. D(C   2,C   1,C   0,H  15)     58.0846         0.011084   
     95. D(C   3,C   1,C   0,H  17)    -59.9238         0.011084   
     96. D(C   3,C   1,C   0,H  16)     60.7720         0.011084   
     97. D(C   2,C   1,C   0,H  16)    -62.2046         0.011084   
     98. D(C   2,C   1,C   0,H  17)    177.0996         0.011084   
     99. D(H  19,C   2,C   1,C   3)    -61.3764         0.011109   
    100. D(H  19,C   2,C   1,C   0)     62.3068         0.011109   
    101. D(H  20,C   2,C   1,H  18)     59.5736         0.011109   
    102. D(H  20,C   2,C   1,C   3)    178.6232         0.011109   
    103. D(H  20,C   2,C   1,C   0)    -57.6936         0.011109   
    104. D(H  19,C   2,C   1,H  18)    179.5740         0.011109   
    105. D(C   4,C   3,C   1,H  18)    -59.8720         0.010163   
    106. D(C   4,C   3,C   1,C   0)     59.6290         0.010163   
    107. D(C   4,C   3,C   1,C   2)   -177.8845         0.010163   
    108. D(H  22,C   3,C   1,H  18)    177.2289         0.010163   
    109. D(H  22,C   3,C   1,C   2)     59.2164         0.010163   
    110. D(H  22,C   3,C   1,C   0)    -63.2701         0.010163   
    111. D(C   9,C   4,C   3,C   1)   -116.6358         0.011651   
    112. D(C   5,C   4,C   3,H  23)    -59.9559         0.011651   
    113. D(C   5,C   4,C   3,H  22)   -175.1661         0.011651   
    114. D(C   9,C   4,C   3,H  22)      6.0704         0.011651   
    115. D(C   5,C   4,C   3,C   1)     62.1277         0.011651   
    116. D(H  24,C   5,C   4,C   9)   -179.3297         0.025114   
    117. D(C   6,C   5,C   4,C   9)      0.8878         0.025114   
    118. D(H  24,C   5,C   4,C   3)      1.8880         0.025114   
    119. D(C   6,C   5,C   4,C   3)   -177.8945         0.025114   
    120. D(H  25,C   6,C   5,H  24)      0.2275         0.025349   
    121. D(H  25,C   6,C   5,C   4)   -179.9874         0.025349   
    122. D(C   7,C   6,C   5,C   4)     -1.2790         0.025349   
    123. D(C   7,C   6,C   5,H  24)    178.9360         0.025349   
    124. D(C  10,C   7,C   6,H  25)      2.2118         0.024537   
    125. D(C  10,C   7,C   6,C   5)   -176.4653         0.024537   
    126. D(C   8,C   7,C   6,H  25)    179.6825         0.024537   
    127. D(C   8,C   7,C   6,C   5)      1.0054         0.024537   
    128. D(H  26,C   8,C   7,C  10)     -2.2503         0.024359   
    129. D(H  26,C   8,C   7,C   6)   -179.6698         0.024359   
    130. D(C   9,C   8,C   7,C  10)    177.0407         0.024359   
    131. D(C   9,C   8,C   7,C   6)     -0.3789         0.024359   
    132. D(H  27,C   9,C   8,C   7)   -179.9491         0.025688   
    133. D(C   4,C   9,C   8,H  26)    179.3207         0.025688   
    134. D(C   4,C   9,C   8,C   7)      0.0140         0.025688   
    135. D(H  27,C   9,C   4,C   5)    179.7015         0.025181   
    136. D(H  27,C   9,C   4,C   3)     -1.5108         0.025181   
    137. D(C   8,C   9,C   4,C   5)     -0.2612         0.025181   
    138. D(H  27,C   9,C   8,H  26)     -0.6425         0.025688   
    139. D(C   8,C   9,C   4,C   3)    178.5266         0.025181   
    140. D(H  28,C  10,C   7,C   6)      1.6017         0.010882   
    141. D(C  12,C  10,C   7,C   8)     66.6788         0.010882   
    142. D(C  12,C  10,C   7,C   6)   -115.9367         0.010882   
    143. D(C  11,C  10,C   7,C   8)    -58.8756         0.010882   
    144. D(C  11,C  10,C   7,C   6)    118.5089         0.010882   
    145. D(H  30,C  11,C  10,H  28)     60.2768         0.010923   
    146. D(H  30,C  11,C  10,C  12)    173.3150         0.010923   
    147. D(H  30,C  11,C  10,C   7)    -56.7959         0.010923   
    148. D(H  29,C  11,C  10,H  28)   -179.2822         0.010923   
    149. D(H  29,C  11,C  10,C  12)    -66.2440         0.010923   
    150. D(H  29,C  11,C  10,C   7)     63.6451         0.010923   
    151. D(O  14,C  12,C  10,C  11)    -46.9991         0.010661   
    152. D(O  14,C  12,C  10,C   7)   -172.7429         0.010661   
    153. D(O  13,C  12,C  10,H  28)   -110.0435         0.010661   
    154. D(O  13,C  12,C  10,C  11)    134.9856         0.010661   
    155. D(O  13,C  12,C  10,C   7)      9.2418         0.010661   
    156. D(H  32,O  13,C  12,O  14)   -178.0530         0.030404   
    157. D(H  32,O  13,C  12,C  10)      0.0092         0.030404   
    -----------------------------------------------------------------

Number of atoms                         .... 33
Number of degrees of freedom            .... 157


         *************************************************************
         *                GEOMETRY OPTIMIZATION CYCLE   1            *
         *************************************************************
---------------------------------
CARTESIAN COORDINATES (ANGSTROEM)
---------------------------------
  C      2.950210   -0.389000    1.262740
  C      2.520450   -1.278480    0.093380
  C      0.995530   -1.407410    0.076750
  C      3.033050   -0.735040   -1.257200
  C      4.542160   -0.631790   -1.323750
  C      5.344210   -1.773030   -1.210370
  C      6.738460   -1.668380   -1.228430
  C      7.361340   -0.421860   -1.387150
  C      6.552280    0.718750   -1.505690
  C      5.159950    0.614500   -1.474460
  C      8.879980   -0.340920   -1.484840
  C      9.281890    0.247720   -2.841950
  C      9.611730    0.405240   -0.371630
  O      8.877450    0.766000    0.705490
  O     10.811950    0.643840   -0.413180
  H      2.593040   -0.801410    2.212030
  H      2.550000    0.625120    1.157900
  H      4.040240   -0.317770    1.333420
  H      2.933340   -2.279880    0.258260
  H      0.513450   -0.436170   -0.077450
  H      0.634240   -1.816020    1.026560
  H      0.667840   -2.081460   -0.721440
  H      2.583410    0.247560   -1.451140
  H      2.698960   -1.387020   -2.075130
  H      4.888860   -2.754890   -1.103260
  H      7.327480   -2.578870   -1.137920
  H      6.995990    1.704320   -1.635670
  H      4.560540    1.518480   -1.569840
  H      9.275100   -1.364820   -1.437490
  H      8.930760    1.279030   -2.956910
  H      8.863860   -0.344310   -3.663560
  H     10.370780    0.265190   -2.961320
  H      7.938070    0.511290    0.667340

----------------------------
CARTESIAN COORDINATES (A.U.)
----------------------------
  NO LB      ZA    FRAG     MASS         X           Y           Z
   0 C     6.0000    0    12.011    5.575089   -0.735103    2.386233
   1 C     6.0000    0    12.011    4.762960   -2.415977    0.176463
   2 C     6.0000    0    12.011    1.881279   -2.659619    0.145036
   3 C     6.0000    0    12.011    5.731634   -1.389024   -2.375764
   4 C     6.0000    0    12.011    8.583438   -1.193910   -2.501525
   5 C     6.0000    0    12.011   10.099093   -3.350541   -2.287268
   6 C     6.0000    0    12.011   12.733844   -3.152781   -2.321396
   7 C     6.0000    0    12.011   13.910917   -0.797200   -2.621334
   8 C     6.0000    0    12.011   12.382015    1.358241   -2.845342
   9 C     6.0000    0    12.011    9.750892    1.161237   -2.786326
  10 C     6.0000    0    12.011   16.780730   -0.644245   -2.805941
  11 C     6.0000    0    12.011   17.540230    0.468123   -5.370507
  12 C     6.0000    0    12.011   18.163537    0.765793   -0.702279
  13 O     8.0000    0    15.999   16.775949    1.447530    1.333183
  14 O     8.0000    0    15.999   20.431624    1.216681   -0.780797
  15 H     1.0000    0     1.008    4.900135   -1.514445    4.180131
  16 H     1.0000    0     1.008    4.818802    1.181306    2.188114
  17 H     1.0000    0     1.008    7.634947   -0.600498    2.519799
  18 H     1.0000    0     1.008    5.543209   -4.308349    0.488041
  19 H     1.0000    0     1.008    0.970280   -0.824242   -0.146359
  20 H     1.0000    0     1.008    1.198540   -3.431780    1.939917
  21 H     1.0000    0     1.008    1.262035   -3.933389   -1.363324
  22 H     1.0000    0     1.008    4.881937    0.467821   -2.742257
  23 H     1.0000    0     1.008    5.100295   -2.621088   -3.921427
  24 H     1.0000    0     1.008    9.238607   -5.205988   -2.084859
  25 H     1.0000    0     1.008   13.846930   -4.873358   -2.150357
  26 H     1.0000    0     1.008   13.220505    3.220698   -3.090968
  27 H     1.0000    0     1.008    8.618172    2.869511   -2.966568
  28 H     1.0000    0     1.008   17.527399   -2.579136   -2.716462
  29 H     1.0000    0     1.008   16.876691    2.417016   -5.587750
  30 H     1.0000    0     1.008   16.750268   -0.650652   -6.923125
  31 H     1.0000    0     1.008   19.597934    0.501136   -5.596084
  32 H     1.0000    0     1.008   15.000778    0.966198    1.261090

--------------------------------
INTERNAL COORDINATES (ANGSTROEM)
--------------------------------
 C      0   0   0     0.000000000000     0.00000000     0.00000000
 C      1   0   0     1.530774685445     0.00000000     0.00000000
 C      2   1   0     1.530451079976   109.69319757     0.00000000
 C      2   1   3     1.543422213783   111.75390370   122.97659260
 C      4   2   1     1.514101204378   113.17224034    59.62897433
 C      5   4   2     1.399488465297   120.80003733    62.12774448
 C      6   5   4     1.398288542684   120.62185491   182.10546629
 C      7   6   5     1.402491940512   120.71853495   358.72101334
 C      8   7   6     1.403431860583   118.41616767     1.00540452
 C      9   8   7     1.396576601658   120.80897981   359.62112357
 C      8   7   6     1.523929811146   119.80454381   183.53472139
 C     11   8   7     1.532897990670   109.78111772   118.50890178
 C     11   8   7     1.526908416442   117.18028431   244.06325010
 O     13  11   8     1.352590991542   116.79212193     9.24179940
 O     13  11   8     1.224411863263   122.70096910   187.25713881
 H      1   2   3     1.094899046077   110.60116628    58.08460252
 H      1   2   3     1.095261997926   111.24215826   297.79538611
 H      1   2   3     1.094639107743   111.51224075   177.09963316
 H      2   1   3     1.095657577211   108.07878105   243.11782334
 H      3   2   1     1.095210438226   111.43237591    62.30681607
 H      3   2   1     1.095276966023   110.52860221   302.30640348
 H      3   2   1     1.094911601318   110.97655958   182.90158328
 H      4   2   1     1.097857738143   109.49312922   296.72986935
 H      4   2   1     1.098045323928   109.98113291   180.66617580
 H      6   5   4     1.087596080445   120.27986322     1.88797466
 H      7   6   5     1.088176759814   118.42658827   180.01256479
 H      9   8   7     1.088632899282   120.72408072   180.33017648
 H     10   9   8     1.088838616554   119.00576528   180.05085388
 H     11   8   7     1.098514017617   107.82851498     1.60169337
 H     12  11   8     1.095494589033   111.73864193    63.64514186
 H     12  11   8     1.095578200723   110.87819736   303.20408023
 H     12  11   8     1.095552750852   111.29575597   183.18075441
 H     14  13  11     0.974046914168   114.99964197     0.00000000

---------------------------
INTERNAL COORDINATES (A.U.)
---------------------------
 C      0   0   0     0.000000000000     0.00000000     0.00000000
 C      1   0   0     2.892744928231     0.00000000     0.00000000
 C      2   1   0     2.892133402519   109.69319757     0.00000000
 C      2   1   3     2.916645293061   111.75390370   122.97659260
 C      4   2   1     2.861236615315   113.17224034    59.62897433
 C      5   4   2     2.644649926994   120.80003733    62.12774448
 C      6   5   4     2.642382401872   120.62185491   182.10546629
 C      7   6   5     2.650325672599   120.71853495   358.72101334
 C      8   7   6     2.652101864122   118.41616767     1.00540452
 C      9   8   7     2.639147302177   120.80897981   359.62112357
 C      8   7   6     2.879809990385   119.80454381   183.53472139
 C     11   8   7     2.896757393604   109.78111772   118.50890178
 C     11   8   7     2.885438738654   117.18028431   244.06325010
 O     13  11   8     2.556026545223   116.79212193     9.24179940
 O     13  11   8     2.313803096692   122.70096910   187.25713881
 H      1   2   3     2.069059341377   110.60116628    58.08460252
 H      1   2   3     2.069745220971   111.24215826   297.79538611
 H      1   2   3     2.068568129114   111.51224075   177.09963316
 H      2   1   3     2.070492757485   108.07878105   243.11782334
 H      3   2   1     2.069647787260   111.43237591    62.30681607
 H      3   2   1     2.069773506575   110.52860221   302.30640348
 H      3   2   1     2.069083067344   110.97655958   182.90158328
 H      4   2   1     2.074650459096   109.49312922   296.72986935
 H      4   2   1     2.075004944857   109.98113291   180.66617580
 H      6   5   4     2.055258736368   120.27986322     1.88797466
 H      7   6   5     2.056356061347   118.42658827   180.01256479
 H      9   8   7     2.057218040020   120.72408072   180.33017648
 H     10   9   8     2.057606789325   119.00576528   180.05085388
 H     11   8   7     2.075890647569   107.82851498     1.60169337
 H     12  11   8     2.070184754464   111.73864193    63.64514186
 H     12  11   8     2.070342757661   110.87819736   303.20408023
 H     12  11   8     2.070294664375   111.29575597   183.18075441
 H     14  13  11     1.840681909368   114.99964197     0.00000000

---------------------
BASIS SET INFORMATION
---------------------
There are 3 groups of distinct atoms

 Group   1 Type C   : 11s6p2d1f contracted to 5s3p2d1f pattern {62111/411/11/1}
 Group   2 Type O   : 11s6p2d1f contracted to 5s3p2d1f pattern {62111/411/11/1}
 Group   3 Type H   : 5s1p contracted to 3s1p pattern {311/1}

Atom   0C    basis set group =>   1
Atom   1C    basis set group =>   1
Atom   2C    basis set group =>   1
Atom   3C    basis set group =>   1
Atom   4C    basis set group =>   1
Atom   5C    basis set group =>   1
Atom   6C    basis set group =>   1
Atom   7C    basis set group =>   1
Atom   8C    basis set group =>   1
Atom   9C    basis set group =>   1
Atom  10C    basis set group =>   1
Atom  11C    basis set group =>   1
Atom  12C    basis set group =>   1
Atom  13O    basis set group =>   2
Atom  14O    basis set group =>   2
Atom  15H    basis set group =>   3
Atom  16H    basis set group =>   3
Atom  17H    basis set group =>   3
Atom  18H    basis set group =>   3
Atom  19H    basis set group =>   3
Atom  20H    basis set group =>   3
Atom  21H    basis set group =>   3
Atom  22H    basis set group =>   3
Atom  23H    basis set group =>   3
Atom  24H    basis set group =>   3
Atom  25H    basis set group =>   3
Atom  26H    basis set group =>   3
Atom  27H    basis set group =>   3
Atom  28H    basis set group =>   3
Atom  29H    basis set group =>   3
Atom  30H    basis set group =>   3
Atom  31H    basis set group =>   3
Atom  32H    basis set group =>   3
---------------------------------
AUXILIARY/J BASIS SET INFORMATION
---------------------------------
There are 3 groups of distinct atoms

 Group   1 Type C   : 12s5p4d2f1g contracted to 6s4p3d1f1g pattern {711111/2111/211/2/1}
 Group   2 Type O   : 12s5p4d2f1g contracted to 6s4p3d1f1g pattern {711111/2111/211/2/1}
 Group   3 Type H   : 5s2p1d contracted to 3s1p1d pattern {311/2/1}

Atom   0C    basis set group =>   1
Atom   1C    basis set group =>   1
Atom   2C    basis set group =>   1
Atom   3C    basis set group =>   1
Atom   4C    basis set group =>   1
Atom   5C    basis set group =>   1
Atom   6C    basis set group =>   1
Atom   7C    basis set group =>   1
Atom   8C    basis set group =>   1
Atom   9C    basis set group =>   1
Atom  10C    basis set group =>   1
Atom  11C    basis set group =>   1
Atom  12C    basis set group =>   1
Atom  13O    basis set group =>   2
Atom  14O    basis set group =>   2
Atom  15H    basis set group =>   3
Atom  16H    basis set group =>   3
Atom  17H    basis set group =>   3
Atom  18H    basis set group =>   3
Atom  19H    basis set group =>   3
Atom  20H    basis set group =>   3
Atom  21H    basis set group =>   3
Atom  22H    basis set group =>   3
Atom  23H    basis set group =>   3
Atom  24H    basis set group =>   3
Atom  25H    basis set group =>   3
Atom  26H    basis set group =>   3
Atom  27H    basis set group =>   3
Atom  28H    basis set group =>   3
Atom  29H    basis set group =>   3
Atom  30H    basis set group =>   3
Atom  31H    basis set group =>   3
Atom  32H    basis set group =>   3
------------------------------------------------------------------------------
                             ORCA STARTUP CALCULATIONS
                           -- RI-GTO INTEGRALS CHOSEN --
------------------------------------------------------------------------------
------------------------------------------------------------------------------
                   ___                                                        
                  /   \      - P O W E R E D   B Y -                         
                 /     \                                                     
                 |  |  |   _    _      __       _____    __    __             
                 |  |  |  | |  | |    /  \     |  _  \  |  |  /  |          
                  \  \/   | |  | |   /    \    | | | |  |  | /  /          
                 / \  \   | |__| |  /  /\  \   | |_| |  |  |/  /          
                |  |  |   |  __  | /  /__\  \  |    /   |      \           
                |  |  |   | |  | | |   __   |  |    \   |  |\   \          
                \     /   | |  | | |  |  |  |  | |\  \  |  | \   \       
                 \___/    |_|  |_| |__|  |__|  |_| \__\ |__|  \__/        
                                                                              
                      - O R C A' S   B I G   F R I E N D -                    
                                      &                                       
                       - I N T E G R A L  F E E D E R -                       
                                                                              
 v1 FN, 2020, v2 2021, v3 2022-2024                                           
------------------------------------------------------------------------------


----------------------
SHARK INTEGRAL PACKAGE
----------------------

Number of atoms                             ...     33
Number of basis functions                   ...    573
Number of shells                            ...    237
Maximum angular momentum                    ...      3
Integral batch strategy                     ... SHARK/LIBINT Hybrid
RI-J (if used) integral strategy            ... SPLIT-RIJ (Revised 2003 algorithm where possible)
Printlevel                                  ...      1
Contraction scheme used                     ... SEGMENTED contraction
Prescreening option                         ... SCHWARTZ
   Thresh                                   ... 2.500e-11
   Tcut                                     ... 2.500e-12
   Tpresel                                  ... 2.500e-12 
Coulomb Range Separation                    ... NOT USED
Exchange Range Separation                   ... NOT USED
Multipole approximations                    ... NOT USED
Finite Nucleus Model                        ... NOT USED
CABS basis                                  ... NOT available
Auxiliary Coulomb fitting basis             ... AVAILABLE
   # of basis functions in Aux-J            ...    933
   # of shells in Aux-J                     ...    315
   Maximum angular momentum in Aux-J        ...      4
Auxiliary J/K fitting basis                 ... NOT available
Auxiliary Correlation fitting basis         ... NOT available
Auxiliary 'external' fitting basis          ... NOT available

Checking pre-screening integrals            ... done (  0.0 sec) Dimension = 237
Check shell pair data                       ... done (  0.0 sec)
Shell pair information
Shell pair cut-off parameter TPreSel        ...   2.5e-12
Total number of shell pairs                 ...     28203
Shell pairs after pre-screening             ...     21418
Total number of primitive shell pairs       ...     83820
Primitive shell pairs kept                  ...     44574
          la=0 lb=0:   6201 shell pairs
          la=1 lb=0:   6326 shell pairs
          la=1 lb=1:   1632 shell pairs
          la=2 lb=0:   2911 shell pairs
          la=2 lb=1:   1474 shell pairs
          la=2 lb=2:    357 shell pairs
          la=3 lb=0:   1389 shell pairs
          la=3 lb=1:    716 shell pairs
          la=3 lb=2:    323 shell pairs
          la=3 lb=3:     89 shell pairs

Calculating one electron integrals          ... done (  0.1 sec)
Calculating RI/J V-Matrix + Cholesky decomp.... done (  0.0 sec)
Calculating Nuclear repulsion               ... done (  0.0 sec) ENN=    969.196472731820 Eh

Diagonalization of the overlap matrix:
Smallest eigenvalue                        ... 6.620e-06
Time for diagonalization                   ...    0.021 sec
Threshold for overlap eigenvalues          ... 1.000e-07
Number of eigenvalues below threshold      ... 0
Time for construction of square roots      ...    0.015 sec
Total time needed                          ...    0.038 sec

-------------------
DFT GRID GENERATION
-------------------

General Integration Accuracy     IntAcc      ... 4.388
Radial Grid Type                 RadialGrid  ... OptM3 with GC (2021)
Angular Grid (max. ang.)         AngularGrid ... 4 (Lebedev-302)
Angular grid pruning method      GridPruning ... 4 (adaptive)
Weight generation scheme         WeightScheme... mBecke (2022)
Basis function cutoff            BFCut       ... 1.0000e-11
Integration weight cutoff        WCut        ... 1.0000e-14
Partially contracted basis set               ... off
Rotationally invariant grid construction     ... off
Angular grids for H and He will be reduced by one unit

Total number of grid points                  ...   146920
Total number of batches                      ...     2310
Average number of points per batch           ...       63
Average number of grid points per atom       ...     4452
Initializing property integral containers    ... done (  0.0 sec)

SHARK setup successfully completed in   1.3 seconds

Maximum memory used throughout the entire STARTUP-calculation: 97.1 MB
-------------------------------------------------------------------------------
                                 ORCA GUESS
                   Start orbitals & Density for SCF / CASSCF
-------------------------------------------------------------------------------

------------
SCF SETTINGS
------------
Hamiltonian:
 Density Functional     Method          .... DFT(GTOs)
 Exchange Functional    Exchange        .... PBE
   PBE kappa parameter   XKappa         ....  0.804000
   PBE mue parameter    XMuePBE         ....  0.219520
 Correlation Functional Correlation     .... PBE
   PBE beta parameter  CBetaPBE         ....  0.066725
 LDA part of GGA corr.  LDAOpt          .... PW91-LDA
 Gradients option       PostSCFGGA      .... off
   NL short-range parameter             ....  6.400000
 RI-approximation to the Coulomb term is turned on
   Number of AuxJ basis functions       .... 933


General Settings:
 Integral files         IntName         .... Ibuprofen\Ibuprofen_PBE_def2-TZVP\Ibuprofen_PBE_def2-TZVP.orcainp
 Hartree-Fock type      HFTyp           .... RHF
 Total Charge           Charge          ....    0
 Multiplicity           Mult            ....    1
 Number of Electrons    NEL             ....  112
 Basis Dimension        Dim             ....  573
 Nuclear Repulsion      ENuc            ....    969.1964727318 Eh

Convergence Acceleration:
 AO-DIIS                CNVDIIS         .... on
   Start iteration      DIISMaxIt       ....    12
   Startup error        DIISStart       ....  0.200000
   # of expansion vecs  DIISMaxEq       ....     5
   Bias factor          DIISBfac        ....   1.050
   Max. coefficient     DIISMaxC        ....  10.000
 MO-DIIS                CNVKDIIS        .... off
 Trust-Rad. Augm. Hess. CNVTRAH         .... auto
   Auto Start mean grad. ratio tolernc. ....  1.125000
   Auto Start start iteration           ....    50
   Auto Start num. interpolation iter.  ....    10
   Max. Number of Micro iterations      ....    24
   Max. Number of Macro iterations      .... Maxiter - #DIIS iter
   Number of Davidson start vectors     ....     2
   Converg. threshold    (grad. norm)   ....   1.000e-05
   Grad. Scal. Fac. for Micro threshold ....   0.100
   Minimum threshold for Micro iter.    ....   1.000e-02
   NR start threshold (gradient norm)   ....   1.000e-04
   Initial trust radius                 ....   0.400
   Minimum AH scaling param. (alpha)    ....   1.000
   Maximum AH scaling param. (alpha)    .... 1000.000
   Quad. conv. algorithm                .... NR
   White noise on init. David. guess    .... on
   Maximum white noise                  ....   0.010
   Pseudo random numbers                .... off
   Inactive MOs                         .... canonical
   Orbital update algorithm             .... Taylor
   Preconditioner                       .... Diag
   Full preconditioner red. dimension   ....   250
 SOSCF                  CNVSOSCF        .... on
   Start iteration      SOSCFMaxIt      ....   150
   Startup grad/error   SOSCFStart      ....  0.003300
   Hessian update       SOSCFHessUp     .... L-BFGS
 Level Shifting         CNVShift        .... on
   Level shift para.    LevelShift      ....    0.2500
   Turn off err/grad.   ShiftErr        ....    0.0010
 Zerner damping         CNVZerner       .... off
 Static damping         CNVDamp         .... on
   Fraction old density DampFac         ....    0.7000
   Max. Damping (<1)    DampMax         ....    0.9800
   Min. Damping (>=0)   DampMin         ....    0.0000
   Turn off err/grad.   DampErr         ....    0.1000

SCF Procedure:
 Maximum # iterations   MaxIter         ....   125
 SCF integral mode      SCFMode         .... Direct
   Integral package                     .... SHARK and LIBINT hybrid scheme
 Reset frequency        DirectResetFreq ....    20
 Integral Threshold     Thresh          ....  2.500e-11 Eh
 Primitive CutOff       TCut            ....  2.500e-12 Eh

Convergence Tolerance:
 Convergence Check Mode ConvCheckMode   .... Total+1el-Energy
 Convergence forced     ConvForced      .... 0
 Energy Change          TolE            ....  1.000e-08 Eh
 1-El. energy change                    ....  1.000e-05 Eh
 Orbital Gradient       TolG            ....  1.000e-05
 Orbital Rotation angle TolX            ....  1.000e-05
 DIIS Error             TolErr          ....  5.000e-07

------------------------------
INITIAL GUESS: MODEL POTENTIAL
------------------------------
Loading Hartree-Fock densities                     ... done
Calculating cut-offs                               ... done
Initializing the effective Hamiltonian             ... done
Setting up the integral package (SHARK)            ... done
Starting the Coulomb interaction                   ... done (   0.6 sec)
Making the grid                                    ... done (   0.3 sec)
Mapping shells                                     ... done
Starting the XC term evaluation                    ... done (   0.8 sec)
  promolecular density results
     # of electrons  =    111.995808163
     EX              =    -88.096107445
     EC              =     -3.713884996
     EX+EC           =    -91.809992441
Transforming the Hamiltonian                       ... done (   0.0 sec)
Diagonalizing the Hamiltonian                      ... done (   0.0 sec)
Back transforming the eigenvectors                 ... done (   0.0 sec)
Now organizing SCF variables                       ... done
                      ------------------
                      INITIAL GUESS DONE (   1.7 sec)
                      ------------------
             **** ENERGY FILE WAS UPDATED (Ibuprofen\Ibuprofen_PBE_def2-TZVP\Ibuprofen_PBE_def2-TZVP.orcainp.en.tmp) ****
Finished Guess after   1.8 sec
Maximum memory used throughout the entire GUESS-calculation: 68.1 MB

-------------------------------------------------------------------------------------------
                                      ORCA LEAN-SCF
                              memory conserving SCF solver
-------------------------------------------------------------------------------------------

--------------------
CPCM SOLVATION MODEL
--------------------
CPCM parameters:
  Epsilon                                         ...      80.1510
  Refrac                                          ...       1.3328
  Rsolv                                           ...       1.3000
  Surface type                                    ... GAUSSIAN VDW
  Discretization scheme                           ... Constant charge density
    Threshold for H atoms                         ...       5.0000 (charges/Ang^2)
    Threshold for non-H atoms                     ...       5.0000 (charges/Ang^2)
  Epsilon function type                           ...         CPCM
Solvent:                                          ... WATER
Radii:
  Scheme                                          ... Element-dependent radii
  Radius for C  used is    3.8550 Bohr (=   2.0400 Ang.)
  Radius for O  used is    3.4469 Bohr (=   1.8240 Ang.)
  Radius for H  used is    2.4944 Bohr (=   1.3200 Ang.)
Calculating surface                               ...        done! (  0.0s)
Cavity surface points                             ...         2777
Cavity Volume                                     ...    1837.0921
Cavity Surface-area                               ...     985.9078
Calculating surface distance matrix               ...        done! (  0.0s)
Performing Cholesky decomposition & store         ...        done! (  0.1s)
Overall time for CPCM initialization              ...                 0.2s

----------------------------------------D-I-I-S--------------------------------------------
Iteration    Energy (Eh)           Delta-E    RMSDP     MaxDP     DIISErr   Damp  Time(sec)
-------------------------------------------------------------------------------------------
               ***  Starting incremental Fock matrix formation  ***
    1    -655.6911126672761156     0.00e+00  1.72e-03  3.27e-01  2.74e-01  0.700   6.0
    2    -655.9049983291209855    -2.14e-01  1.34e-03  2.67e-01  8.52e-02  0.700   5.5
                               ***Turning on AO-DIIS***
    3    -655.9750952310749881    -7.01e-02  4.79e-04  5.03e-02  2.69e-02  0.700   5.4
    4    -656.0189927156608292    -4.39e-02  7.30e-04  3.39e-02  1.32e-02  0.000   5.2
    5    -656.1190552094489021    -1.00e-01  3.25e-04  6.56e-02  7.42e-03  0.000   5.3
                              *** Initializing SOSCF ***
---------------------------------------S-O-S-C-F--------------------------------------
Iteration    Energy (Eh)           Delta-E    RMSDP     MaxDP     MaxGrad    Time(sec)
--------------------------------------------------------------------------------------
    6    -656.1201694237087167    -1.11e-03  1.28e-04  1.50e-02  3.12e-03     5.1
               *** Restarting incremental Fock matrix formation ***
    7    -656.1202548220998096    -8.54e-05  1.09e-04  1.65e-02  7.54e-04     6.0
    8    -656.1202102087314643     4.46e-05  4.23e-05  6.55e-03  2.14e-03     4.7
    9    -656.1202677401894334    -5.75e-05  1.78e-05  1.14e-03  1.41e-04     4.5
   10    -656.1202657170928205     2.02e-06  6.97e-06  3.64e-04  1.72e-04     4.5
   11    -656.1202687967471547    -3.08e-06  8.65e-06  1.28e-03  5.40e-05     4.4
   12    -656.1202684902115152     3.07e-07  4.63e-06  6.98e-04  9.20e-05     4.3
   13    -656.1202689152568155    -4.25e-07  3.60e-06  3.58e-04  1.26e-05     4.2
   14    -656.1202688999397878     1.53e-08  1.14e-06  1.85e-04  2.25e-05     4.0
   15    -656.1202689385442000    -3.86e-08  2.23e-06  1.37e-04  1.18e-06     3.9
                  *** Gradient check signals convergence ***

               *****************************************************
               *                     SUCCESS                       *
               *           SCF CONVERGED AFTER  15 CYCLES          *
               *****************************************************

             **** ENERGY FILE WAS UPDATED (Ibuprofen\Ibuprofen_PBE_def2-TZVP\Ibuprofen_PBE_def2-TZVP.orcainp.en.tmp) ****

----------------
TOTAL SCF ENERGY
----------------

Total Energy       :       -656.12026893854420 Eh          -17853.94019 eV

Components:
Nuclear Repulsion  :        969.19647273182011 Eh           26373.17681 eV
Electronic Energy  :      -1625.29816205767702 Eh          -44226.61143 eV
One Electron Energy:      -2812.94862152391170 Eh          -76544.22342 eV
Two Electron Energy:       1187.65045946623468 Eh           32317.61200 eV
CPCM Dielectric    :         -0.01857961268722 Eh              -0.50558 eV

Virial components:
Potential Energy   :      -1309.19104785663103 Eh          -35624.89955 eV
Kinetic Energy     :        653.07077891808694 Eh           17770.95935 eV
Virial Ratio       :          2.00466946327856

DFT components:
N(Alpha)           :       55.999985600886 electrons
N(Beta)            :       55.999985600886 electrons
N(Total)           :      111.999971201772 electrons
E(X)               :      -89.971849851268 Eh       
E(C)               :       -3.709564690099 Eh       
E(XC)              :      -93.681414541367 Eh       

CPCM Solvation Model Properties:
Surface-charge          :         -0.03568931943889
Corrected charge        :          0.00000000000000
Outlying charge corr.   :          0.00007427260657 Eh               0.00202 eV
Free-energy (cav+disp)  :  This term is not implemented in the current solvation scheme

---------------
SCF CONVERGENCE
---------------

  Last Energy change         ...    3.8604e-08  Tolerance :   1.0000e-08
  Last MAX-Density change    ...    1.3654e-04  Tolerance :   1.0000e-07
  Last RMS-Density change    ...    2.2259e-06  Tolerance :   5.0000e-09
  Last DIIS Error            ...    3.1226e-03  Tolerance :   5.0000e-07
  Last Orbital Gradient      ...    1.1753e-06  Tolerance :   1.0000e-05
  Last Orbital Rotation      ...    3.8926e-06  Tolerance :   1.0000e-05


----------------
ORBITAL ENERGIES
----------------

  NO   OCC          E(Eh)            E(eV) 
   0   2.0000     -18.800290      -511.5819 
   1   2.0000     -18.744418      -510.0615 
   2   2.0000     -10.016230      -272.5555 
   3   2.0000      -9.910912      -269.6896 
   4   2.0000      -9.901607      -269.4364 
   5   2.0000      -9.894752      -269.2499 
   6   2.0000      -9.889722      -269.1130 
   7   2.0000      -9.889208      -269.0990 
   8   2.0000      -9.885640      -269.0019 
   9   2.0000      -9.885347      -268.9940 
  10   2.0000      -9.884008      -268.9575 
  11   2.0000      -9.877534      -268.7814 
  12   2.0000      -9.876304      -268.7479 
  13   2.0000      -9.862248      -268.3654 
  14   2.0000      -9.861369      -268.3415 
  15   2.0000      -1.013201       -27.5706 
  16   2.0000      -0.935465       -25.4553 
  17   2.0000      -0.789909       -21.4945 
  18   2.0000      -0.744779       -20.2665 
  19   2.0000      -0.720808       -19.6142 
  20   2.0000      -0.677479       -18.4352 
  21   2.0000      -0.671929       -18.2841 
  22   2.0000      -0.612573       -16.6690 
  23   2.0000      -0.609492       -16.5851 
  24   2.0000      -0.593645       -16.1539 
  25   2.0000      -0.562246       -15.2995 
  26   2.0000      -0.551113       -14.9965 
  27   2.0000      -0.527882       -14.3644 
  28   2.0000      -0.497942       -13.5497 
  29   2.0000      -0.475179       -12.9303 
  30   2.0000      -0.447105       -12.1664 
  31   2.0000      -0.426130       -11.5956 
  32   2.0000      -0.412067       -11.2129 
  33   2.0000      -0.407223       -11.0811 
  34   2.0000      -0.400791       -10.9061 
  35   2.0000      -0.398793       -10.8517 
  36   2.0000      -0.386974       -10.5301 
  37   2.0000      -0.381097       -10.3702 
  38   2.0000      -0.372102       -10.1254 
  39   2.0000      -0.362313        -9.8590 
  40   2.0000      -0.355902        -9.6846 
  41   2.0000      -0.343076        -9.3356 
  42   2.0000      -0.333818        -9.0836 
  43   2.0000      -0.328388        -8.9359 
  44   2.0000      -0.321898        -8.7593 
  45   2.0000      -0.318855        -8.6765 
  46   2.0000      -0.310585        -8.4515 
  47   2.0000      -0.299849        -8.1593 
  48   2.0000      -0.295855        -8.0506 
  49   2.0000      -0.289167        -7.8686 
  50   2.0000      -0.285296        -7.7633 
  51   2.0000      -0.280015        -7.6196 
  52   2.0000      -0.274341        -7.4652 
  53   2.0000      -0.246535        -6.7085 
  54   2.0000      -0.234458        -6.3799 
  55   2.0000      -0.216968        -5.9040 
  56   0.0000      -0.051324        -1.3966 
  57   0.0000      -0.046679        -1.2702 
  58   0.0000      -0.041301        -1.1238 
  59   0.0000       0.011395         0.3101 
  60   0.0000       0.026871         0.7312 
  61   0.0000       0.039640         1.0787 
  62   0.0000       0.044114         1.2004 
  63   0.0000       0.052961         1.4411 
  64   0.0000       0.058598         1.5945 
  65   0.0000       0.062722         1.7067 
  66   0.0000       0.070057         1.9063 
*Only the first 10 virtual orbitals were printed.

                    ********************************
                    * MULLIKEN POPULATION ANALYSIS *
                    ********************************

-----------------------
MULLIKEN ATOMIC CHARGES
-----------------------
   0 C :   -0.401957
   1 C :   -0.024747
   2 C :   -0.379682
   3 C :   -0.212365
   4 C :    0.187448
   5 C :   -0.232056
   6 C :   -0.206686
   7 C :    0.016312
   8 C :   -0.227868
   9 C :   -0.187210
  10 C :    0.072910
  11 C :   -0.416934
  12 C :    0.204677
  13 O :   -0.313878
  14 O :   -0.349709
  15 H :    0.126280
  16 H :    0.114093
  17 H :    0.131178
  18 H :    0.084104
  19 H :    0.116519
  20 H :    0.126052
  21 H :    0.122430
  22 H :    0.117066
  23 H :    0.112691
  24 H :    0.130290
  25 H :    0.130295
  26 H :    0.136613
  27 H :    0.127830
  28 H :    0.122332
  29 H :    0.139169
  30 H :    0.138606
  31 H :    0.133757
  32 H :    0.362441
Sum of atomic charges:   -0.0000000

--------------------------------
MULLIKEN REDUCED ORBITAL CHARGES
--------------------------------
  0 C s       :     3.260608  s :     3.260608
      pz      :     1.002302  p :     3.087441
      px      :     1.065836
      py      :     1.019302
      dz2     :     0.017647  d :     0.050772
      dxz     :     0.007977
      dyz     :     0.005413
      dx2y2   :     0.014282
      dxy     :     0.005454
      f0      :     0.000484  f :     0.003136
      f+1     :     0.000445
      f-1     :     0.000805
      f+2     :     0.000453
      f-2     :     0.000283
      f+3     :     0.000538
      f-3     :     0.000129

  1 C s       :     3.137942  s :     3.137942
      pz      :     0.888276  p :     2.737836
      px      :     0.903451
      py      :     0.946109
      dz2     :     0.035391  d :     0.141264
      dxz     :     0.034167
      dyz     :     0.020945
      dx2y2   :     0.024121
      dxy     :     0.026640
      f0      :     0.001743  f :     0.007705
      f+1     :     0.000861
      f-1     :     0.001143
      f+2     :     0.001526
      f-2     :     0.000632
      f+3     :     0.000753
      f-3     :     0.001048

  2 C s       :     3.255702  s :     3.255702
      pz      :     1.065526  p :     3.069707
      px      :     0.940119
      py      :     1.064062
      dz2     :     0.005387  d :     0.051087
      dxz     :     0.016144
      dyz     :     0.005151
      dx2y2   :     0.003939
      dxy     :     0.020467
      f0      :     0.000388  f :     0.003186
      f+1     :     0.000268
      f-1     :     0.000561
      f+2     :     0.000552
      f-2     :    -0.000045
      f+3     :     0.000672
      f-3     :     0.000790

  3 C s       :     3.194154  s :     3.194154
      pz      :     0.968501  p :     2.929266
      px      :     0.912509
      py      :     1.048257
      dz2     :     0.013912  d :     0.083838
      dxz     :     0.025195
      dyz     :     0.014030
      dx2y2   :     0.012632
      dxy     :     0.018069
      f0      :     0.001024  f :     0.005107
      f+1     :     0.000604
      f-1     :     0.000822
      f+2     :     0.000870
      f-2     :     0.000223
      f+3     :     0.000735
      f-3     :     0.000828

  4 C s       :     3.180962  s :     3.180962
      pz      :     0.903134  p :     2.487522
      px      :     0.785494
      py      :     0.798893
      dz2     :     0.007869  d :     0.134651
      dxz     :     0.024351
      dyz     :     0.021435
      dx2y2   :     0.041805
      dxy     :     0.039192
      f0      :     0.001504  f :     0.009417
      f+1     :     0.000676
      f-1     :     0.000525
      f+2     :     0.000934
      f-2     :     0.001118
      f+3     :     0.001255
      f-3     :     0.003405

  5 C s       :     3.267022  s :     3.267022
      pz      :     0.972149  p :     2.872227
      px      :     0.954927
      py      :     0.945151
      dz2     :     0.004343  d :     0.086033
      dxz     :     0.019031
      dyz     :     0.007255
      dx2y2   :     0.023092
      dxy     :     0.032311
      f0      :     0.001355  f :     0.006774
      f+1     :     0.000474
      f-1     :     0.000577
      f+2     :     0.000753
      f-2     :     0.000529
      f+3     :     0.000942
      f-3     :     0.002144

  6 C s       :     3.249971  s :     3.249971
      pz      :     0.969719  p :     2.859190
      px      :     0.954713
      py      :     0.934758
      dz2     :     0.005802  d :     0.090653
      dxz     :     0.017512
      dyz     :     0.009188
      dx2y2   :     0.020213
      dxy     :     0.037938
      f0      :     0.001322  f :     0.006873
      f+1     :     0.000448
      f-1     :     0.000631
      f+2     :     0.000978
      f-2     :     0.000351
      f+3     :     0.000968
      f-3     :     0.002175

  7 C s       :     3.211777  s :     3.211777
      pz      :     0.959411  p :     2.627617
      px      :     0.798960
      py      :     0.869246
      dz2     :     0.008123  d :     0.135130
      dxz     :     0.020763
      dyz     :     0.023691
      dx2y2   :     0.044655
      dxy     :     0.037898
      f0      :     0.001378  f :     0.009164
      f+1     :     0.000728
      f-1     :     0.000521
      f+2     :     0.000849
      f-2     :     0.001131
      f+3     :     0.001231
      f-3     :     0.003327

  8 C s       :     3.271428  s :     3.271428
      pz      :     0.978555  p :     2.860897
      px      :     0.959074
      py      :     0.923267
      dz2     :     0.004974  d :     0.088807
      dxz     :     0.020515
      dyz     :     0.007438
      dx2y2   :     0.023570
      dxy     :     0.032310
      f0      :     0.001298  f :     0.006737
      f+1     :     0.000479
      f-1     :     0.000574
      f+2     :     0.000765
      f-2     :     0.000559
      f+3     :     0.000939
      f-3     :     0.002123

  9 C s       :     3.224794  s :     3.224794
      pz      :     0.970354  p :     2.865512
      px      :     0.948292
      py      :     0.946866
      dz2     :     0.005310  d :     0.090059
      dxz     :     0.016735
      dyz     :     0.009266
      dx2y2   :     0.020854
      dxy     :     0.037894
      f0      :     0.001337  f :     0.006845
      f+1     :     0.000454
      f-1     :     0.000597
      f+2     :     0.000974
      f-2     :     0.000332
      f+3     :     0.000949
      f-3     :     0.002202

 10 C s       :     3.026262  s :     3.026262
      pz      :     0.918444  p :     2.771102
      px      :     0.882185
      py      :     0.970474
      dz2     :     0.025551  d :     0.122494
      dxz     :     0.035242
      dyz     :     0.018760
      dx2y2   :     0.020228
      dxy     :     0.022714
      f0      :     0.001485  f :     0.007231
      f+1     :     0.001028
      f-1     :     0.001092
      f+2     :     0.001239
      f-2     :     0.000634
      f+3     :     0.000780
      f-3     :     0.000974

 11 C s       :     3.279153  s :     3.279153
      pz      :     0.948797  p :     3.082080
      px      :     1.077471
      py      :     1.055811
      dz2     :     0.013624  d :     0.052481
      dxz     :     0.010802
      dyz     :     0.012478
      dx2y2   :     0.012379
      dxy     :     0.003197
      f0      :     0.000722  f :     0.003220
      f+1     :     0.000611
      f-1     :     0.000771
      f+2     :     0.000349
      f-2     :     0.000226
      f+3     :     0.000472
      f-3     :     0.000068

 12 C s       :     3.107458  s :     3.107458
      pz      :     0.838370  p :     2.427545
      px      :     0.782798
      py      :     0.806377
      dz2     :     0.042458  d :     0.237728
      dxz     :     0.076415
      dyz     :     0.024073
      dx2y2   :     0.039313
      dxy     :     0.055469
      f0      :     0.004859  f :     0.022592
      f+1     :     0.002779
      f-1     :     0.001741
      f+2     :     0.004601
      f-2     :     0.002289
      f+3     :     0.002826
      f-3     :     0.003495

 13 O s       :     3.737041  s :     3.737041
      pz      :     1.539862  p :     4.546817
      px      :     1.315150
      py      :     1.691805
      dz2     :     0.008841  d :     0.028339
      dxz     :     0.004961
      dyz     :     0.005312
      dx2y2   :     0.005502
      dxy     :     0.003723
      f0      :     0.000163  f :     0.001682
      f+1     :     0.000394
      f-1     :     0.000138
      f+2     :     0.000275
      f-2     :     0.000192
      f+3     :     0.000256
      f-3     :     0.000264

 14 O s       :     3.787837  s :     3.787837
      pz      :     1.699675  p :     4.531195
      px      :     1.348042
      py      :     1.483477
      dz2     :     0.002879  d :     0.028923
      dxz     :     0.008190
      dyz     :     0.000462
      dx2y2   :     0.007979
      dxy     :     0.009413
      f0      :     0.000251  f :     0.001754
      f+1     :     0.000238
      f-1     :     0.000060
      f+2     :     0.000294
      f-2     :     0.000059
      f+3     :     0.000380
      f-3     :     0.000473

 15 H s       :     0.852694  s :     0.852694
      pz      :     0.010272  p :     0.021026
      px      :     0.005371
      py      :     0.005382

 16 H s       :     0.865029  s :     0.865029
      pz      :     0.004589  p :     0.020878
      px      :     0.005475
      py      :     0.010814

 17 H s       :     0.847340  s :     0.847340
      pz      :     0.004932  p :     0.021482
      px      :     0.011844
      py      :     0.004706

 18 H s       :     0.894193  s :     0.894193
      pz      :     0.004675  p :     0.021703
      px      :     0.005787
      py      :     0.011240

 19 H s       :     0.862628  s :     0.862628
      pz      :     0.004793  p :     0.020853
      px      :     0.006200
      py      :     0.009860

 20 H s       :     0.852912  s :     0.852912
      pz      :     0.009733  p :     0.021035
      px      :     0.005659
      py      :     0.005644

 21 H s       :     0.856567  s :     0.856567
      pz      :     0.008240  p :     0.021003
      px      :     0.005496
      py      :     0.007266

 22 H s       :     0.861652  s :     0.861652
      pz      :     0.004918  p :     0.021282
      px      :     0.005930
      py      :     0.010435

 23 H s       :     0.865917  s :     0.865917
      pz      :     0.009106  p :     0.021392
      px      :     0.005365
      py      :     0.006921

 24 H s       :     0.847794  s :     0.847794
      pz      :     0.004999  p :     0.021916
      px      :     0.005499
      py      :     0.011417

 25 H s       :     0.847915  s :     0.847915
      pz      :     0.004914  p :     0.021790
      px      :     0.006573
      py      :     0.010303

 26 H s       :     0.841549  s :     0.841549
      pz      :     0.004968  p :     0.021838
      px      :     0.005420
      py      :     0.011449

 27 H s       :     0.850414  s :     0.850414
      pz      :     0.004937  p :     0.021756
      px      :     0.006647
      py      :     0.010172

 28 H s       :     0.855287  s :     0.855287
      pz      :     0.004591  p :     0.022380
      px      :     0.005613
      py      :     0.012177

 29 H s       :     0.839665  s :     0.839665
      pz      :     0.004600  p :     0.021166
      px      :     0.005420
      py      :     0.011147

 30 H s       :     0.840356  s :     0.840356
      pz      :     0.009046  p :     0.021037
      px      :     0.005556
      py      :     0.006435

 31 H s       :     0.844791  s :     0.844791
      pz      :     0.004713  p :     0.021452
      px      :     0.012086
      py      :     0.004653

 32 H s       :     0.591355  s :     0.591355
      pz      :     0.011193  p :     0.046205
      px      :     0.021430
      py      :     0.013582



                     *******************************
                     * LOEWDIN POPULATION ANALYSIS *
                     *******************************

----------------------
LOEWDIN ATOMIC CHARGES
----------------------
   0 C :   -0.294894
   1 C :   -0.305642
   2 C :   -0.297520
   3 C :   -0.196979
   4 C :   -0.144150
   5 C :   -0.110280
   6 C :   -0.112590
   7 C :   -0.148734
   8 C :   -0.119449
   9 C :   -0.116204
  10 C :   -0.214746
  11 C :   -0.270349
  12 C :   -0.475105
  13 O :    0.127848
  14 O :    0.065628
  15 H :    0.124943
  16 H :    0.124556
  17 H :    0.124683
  18 H :    0.153751
  19 H :    0.123768
  20 H :    0.124922
  21 H :    0.123313
  22 H :    0.150071
  23 H :    0.152580
  24 H :    0.155660
  25 H :    0.155732
  26 H :    0.157787
  27 H :    0.154957
  28 H :    0.188014
  29 H :    0.130956
  30 H :    0.132286
  31 H :    0.128289
  32 H :    0.206898

-------------------------------
LOEWDIN REDUCED ORBITAL CHARGES
-------------------------------
  0 C s       :     2.832956  s :     2.832956
      pz      :     1.044677  p :     3.177555
      px      :     1.067762
      py      :     1.065116
      dz2     :     0.082382  d :     0.260029
      dxz     :     0.036131
      dyz     :     0.043094
      dx2y2   :     0.068576
      dxy     :     0.029845
      f0      :     0.003048  f :     0.024354
      f+1     :     0.004323
      f-1     :     0.004645
      f+2     :     0.003197
      f-2     :     0.004247
      f+3     :     0.003687
      f-3     :     0.001207

  1 C s       :     2.740033  s :     2.740033
      pz      :     0.990197  p :     2.986962
      px      :     0.999871
      py      :     0.996895
      dz2     :     0.129595  d :     0.525905
      dxz     :     0.109570
      dyz     :     0.089830
      dx2y2   :     0.103963
      dxy     :     0.092948
      f0      :     0.010221  f :     0.052741
      f+1     :     0.007269
      f-1     :     0.007103
      f+2     :     0.009558
      f-2     :     0.006325
      f+3     :     0.005732
      f-3     :     0.006533

  2 C s       :     2.835069  s :     2.835069
      pz      :     1.071716  p :     3.177170
      px      :     1.032202
      py      :     1.073252
      dz2     :     0.035534  d :     0.260917
      dxz     :     0.068581
      dyz     :     0.035313
      dx2y2   :     0.043148
      dxy     :     0.078341
      f0      :     0.002536  f :     0.024364
      f+1     :     0.003433
      f-1     :     0.002626
      f+2     :     0.004139
      f-2     :     0.002051
      f+3     :     0.004501
      f-3     :     0.005078

  3 C s       :     2.770495  s :     2.770495
      pz      :     1.005092  p :     3.015497
      px      :     0.984441
      py      :     1.025965
      dz2     :     0.075425  d :     0.374378
      dxz     :     0.086114
      dyz     :     0.068236
      dx2y2   :     0.070692
      dxy     :     0.073911
      f0      :     0.006019  f :     0.036609
      f+1     :     0.005598
      f-1     :     0.004756
      f+2     :     0.005827
      f-2     :     0.004060
      f+3     :     0.005191
      f-3     :     0.005157

  4 C s       :     2.715884  s :     2.715884
      pz      :     0.823831  p :     2.852357
      px      :     0.979923
      py      :     1.048603
      dz2     :     0.036074  d :     0.519402
      dxz     :     0.071784
      dyz     :     0.074722
      dx2y2   :     0.176496
      dxy     :     0.160326
      f0      :     0.003930  f :     0.056506
      f+1     :     0.004079
      f-1     :     0.004304
      f+2     :     0.005920
      f-2     :     0.007326
      f+3     :     0.009215
      f-3     :     0.021732

  5 C s       :     2.763718  s :     2.763718
      pz      :     0.890095  p :     2.928856
      px      :     1.040042
      py      :     0.998719
      dz2     :     0.025861  d :     0.376219
      dxz     :     0.062887
      dyz     :     0.023138
      dx2y2   :     0.127822
      dxy     :     0.136511
      f0      :     0.002933  f :     0.041487
      f+1     :     0.004091
      f-1     :     0.003242
      f+2     :     0.005052
      f-2     :     0.003621
      f+3     :     0.008029
      f-3     :     0.014520

  6 C s       :     2.765816  s :     2.765816
      pz      :     0.886949  p :     2.923795
      px      :     1.037099
      py      :     0.999747
      dz2     :     0.026251  d :     0.381501
      dxz     :     0.059045
      dyz     :     0.032640
      dx2y2   :     0.110461
      dxy     :     0.153105
      f0      :     0.002928  f :     0.041477
      f+1     :     0.003827
      f-1     :     0.003505
      f+2     :     0.006756
      f-2     :     0.002317
      f+3     :     0.007810
      f-3     :     0.014335

  7 C s       :     2.714135  s :     2.714135
      pz      :     0.860343  p :     2.868213
      px      :     0.956526
      py      :     1.051344
      dz2     :     0.036954  d :     0.511277
      dxz     :     0.065893
      dyz     :     0.078345
      dx2y2   :     0.175879
      dxy     :     0.154206
      f0      :     0.003705  f :     0.055109
      f+1     :     0.004226
      f-1     :     0.004172
      f+2     :     0.005478
      f-2     :     0.007541
      f+3     :     0.009023
      f-3     :     0.020964

  8 C s       :     2.764340  s :     2.764340
      pz      :     0.890647  p :     2.931683
      px      :     1.044120
      py      :     0.996916
      dz2     :     0.026104  d :     0.381882
      dxz     :     0.068199
      dyz     :     0.024927
      dx2y2   :     0.125339
      dxy     :     0.137312
      f0      :     0.002894  f :     0.041544
      f+1     :     0.004104
      f-1     :     0.003181
      f+2     :     0.005188
      f-2     :     0.003939
      f+3     :     0.007977
      f-3     :     0.014262

  9 C s       :     2.764993  s :     2.764993
      pz      :     0.892021  p :     2.929894
      px      :     1.035050
      py      :     1.002822
      dz2     :     0.026383  d :     0.379660
      dxz     :     0.056640
      dyz     :     0.030556
      dx2y2   :     0.111912
      dxy     :     0.154169
      f0      :     0.002961  f :     0.041658
      f+1     :     0.003860
      f-1     :     0.003476
      f+2     :     0.006630
      f-2     :     0.002172
      f+3     :     0.007916
      f-3     :     0.014643

 10 C s       :     2.731779  s :     2.731779
      pz      :     0.993976  p :     2.956065
      px      :     0.969200
      py      :     0.992889
      dz2     :     0.105903  d :     0.477230
      dxz     :     0.118571
      dyz     :     0.077311
      dx2y2   :     0.092771
      dxy     :     0.082674
      f0      :     0.008652  f :     0.049671
      f+1     :     0.007807
      f-1     :     0.007027
      f+2     :     0.007628
      f-2     :     0.007061
      f+3     :     0.005558
      f-3     :     0.005939

 11 C s       :     2.831800  s :     2.831800
      pz      :     1.014224  p :     3.159197
      px      :     1.073124
      py      :     1.071849
      dz2     :     0.070631  d :     0.255212
      dxz     :     0.046465
      dyz     :     0.059749
      dx2y2   :     0.059532
      dxy     :     0.018835
      f0      :     0.004151  f :     0.024140
      f+1     :     0.005013
      f-1     :     0.004631
      f+2     :     0.002470
      f-2     :     0.004156
      f+3     :     0.002912
      f-3     :     0.000807

 12 C s       :     2.776211  s :     2.776211
      pz      :     0.891250  p :     2.645120
      px      :     0.958013
      py      :     0.795857
      dz2     :     0.172178  d :     0.910355
      dxz     :     0.296109
      dyz     :     0.096410
      dx2y2   :     0.155667
      dxy     :     0.189991
      f0      :     0.030266  f :     0.143419
      f+1     :     0.020074
      f-1     :     0.013408
      f+2     :     0.026387
      f-2     :     0.014267
      f+3     :     0.019124
      f-3     :     0.019892

 13 O s       :     3.328222  s :     3.328222
      pz      :     1.547089  p :     4.471143
      px      :     1.316403
      py      :     1.607651
      dz2     :     0.020264  d :     0.068207
      dxz     :     0.015218
      dyz     :     0.009896
      dx2y2   :     0.014586
      dxy     :     0.008242
      f0      :     0.000628  f :     0.004580
      f+1     :     0.001113
      f-1     :     0.000545
      f+2     :     0.000758
      f-2     :     0.000622
      f+3     :     0.000405
      f-3     :     0.000510

 14 O s       :     3.412815  s :     3.412815
      pz      :     1.570869  p :     4.452511
      px      :     1.481538
      py      :     1.400104
      dz2     :     0.008462  d :     0.063302
      dxz     :     0.016361
      dyz     :     0.000746
      dx2y2   :     0.022015
      dxy     :     0.015719
      f0      :     0.000651  f :     0.005745
      f+1     :     0.001059
      f-1     :     0.000126
      f+2     :     0.000912
      f-2     :     0.000160
      f+3     :     0.001506
      f-3     :     0.001330

 15 H s       :     0.813422  s :     0.813422
      pz      :     0.028866  p :     0.061635
      px      :     0.016205
      py      :     0.016564

 16 H s       :     0.813719  s :     0.813719
      pz      :     0.013445  p :     0.061725
      px      :     0.016643
      py      :     0.031636

 17 H s       :     0.812813  s :     0.812813
      pz      :     0.013573  p :     0.062504
      px      :     0.035329
      py      :     0.013602

 18 H s       :     0.788208  s :     0.788208
      pz      :     0.013291  p :     0.058041
      px      :     0.015799
      py      :     0.028951

 19 H s       :     0.814505  s :     0.814505
      pz      :     0.014115  p :     0.061727
      px      :     0.016881
      py      :     0.030732

[...]
      f-3     :     0.014382

  7 C s       :     2.713969  s :     2.713969
      pz      :     0.859301  p :     2.866976
      px      :     0.953967
      py      :     1.053709
      dz2     :     0.036021  d :     0.513823
      dxz     :     0.064119
      dyz     :     0.078388
      dx2y2   :     0.176972
      dxy     :     0.158322
      f0      :     0.003688  f :     0.055341
      f+1     :     0.004135
      f-1     :     0.004236
      f+2     :     0.005102
      f-2     :     0.007595
      f+3     :     0.009159
      f-3     :     0.021426

  8 C s       :     2.764739  s :     2.764739
      pz      :     0.886898  p :     2.924896
      px      :     1.041050
      py      :     0.996947
      dz2     :     0.025999  d :     0.379125
      dxz     :     0.065593
      dyz     :     0.023833
      dx2y2   :     0.125653
      dxy     :     0.138046
      f0      :     0.002892  f :     0.041489
      f+1     :     0.004133
      f-1     :     0.003243
      f+2     :     0.004965
      f-2     :     0.003959
      f+3     :     0.008073
      f-3     :     0.014222

  9 C s       :     2.767115  s :     2.767115
      pz      :     0.891001  p :     2.928864
      px      :     1.035244
      py      :     1.002618
      dz2     :     0.026380  d :     0.378383
      dxz     :     0.055416
      dyz     :     0.030052
      dx2y2   :     0.111113
      dxy     :     0.155420
      f0      :     0.002873  f :     0.041189
      f+1     :     0.003934
      f-1     :     0.003437
      f+2     :     0.006431
      f-2     :     0.002120
      f+3     :     0.007893
      f-3     :     0.014501

 10 C s       :     2.733710  s :     2.733710
      pz      :     0.993342  p :     2.957279
      px      :     0.971472
      py      :     0.992465
      dz2     :     0.112567  d :     0.480972
      dxz     :     0.117716
      dyz     :     0.085682
      dx2y2   :     0.085657
      dxy     :     0.079350
      f0      :     0.008838  f :     0.049119
      f+1     :     0.007321
      f-1     :     0.006894
      f+2     :     0.007686
      f-2     :     0.006666
      f+3     :     0.005926
      f-3     :     0.005788

 11 C s       :     2.835132  s :     2.835132
      pz      :     1.023425  p :     3.165550
      px      :     1.068985
      py      :     1.073140
      dz2     :     0.066934  d :     0.248570
      dxz     :     0.041397
      dyz     :     0.061832
      dx2y2   :     0.058503
      dxy     :     0.019904
      f0      :     0.004026  f :     0.023956
      f+1     :     0.005027
      f-1     :     0.004508
      f+2     :     0.002552
      f-2     :     0.004174
      f+3     :     0.002979
      f-3     :     0.000691

 12 C s       :     2.777697  s :     2.777697
      pz      :     0.915970  p :     2.650287
      px      :     0.870573
      py      :     0.863744
      dz2     :     0.196048  d :     0.910112
      dxz     :     0.224951
      dyz     :     0.200340
      dx2y2   :     0.157854
      dxy     :     0.130919
      f0      :     0.039466  f :     0.145092
      f+1     :     0.018468
      f-1     :     0.017849
      f+2     :     0.011038
      f-2     :     0.026350
      f+3     :     0.016361
      f-3     :     0.015561

 13 O s       :     3.344082  s :     3.344082
      pz      :     1.518503  p :     4.468346
      px      :     1.437343
      py      :     1.512500
      dz2     :     0.027511  d :     0.068873
      dxz     :     0.013396
      dyz     :     0.010316
      dx2y2   :     0.002938
      dxy     :     0.014712
      f0      :     0.001219  f :     0.004732
      f+1     :     0.001060
      f-1     :     0.000783
      f+2     :     0.000367
      f-2     :     0.000563
      f+3     :     0.000204
      f-3     :     0.000536

 14 O s       :     3.407363  s :     3.407363
      pz      :     1.617122  p :     4.445265
      px      :     1.422386
      py      :     1.405758
      dz2     :     0.008766  d :     0.064602
      dxz     :     0.010393
      dyz     :     0.008278
      dx2y2   :     0.013634
      dxy     :     0.023530
      f0      :     0.000720  f :     0.005952
      f+1     :     0.000685
      f-1     :     0.000566
      f+2     :     0.000077
      f-2     :     0.001157
      f+3     :     0.001300
      f-3     :     0.001447

 15 H s       :     0.813613  s :     0.813613
      pz      :     0.029702  p :     0.060805
      px      :     0.015831
      py      :     0.015272

 16 H s       :     0.813568  s :     0.813568
      pz      :     0.013878  p :     0.060601
      px      :     0.017646
      py      :     0.029077

 17 H s       :     0.812829  s :     0.812829
      pz      :     0.013246  p :     0.061629
      px      :     0.034682
      py      :     0.013701

 18 H s       :     0.788955  s :     0.788955
      pz      :     0.013539  p :     0.056502
      px      :     0.016505
      py      :     0.026459

 19 H s       :     0.813801  s :     0.813801
      pz      :     0.014659  p :     0.060651
      px      :     0.017685
      py      :     0.028307

 20 H s       :     0.813741  s :     0.813741
      pz      :     0.030321  p :     0.060817
      px      :     0.015202
      py      :     0.015294

 21 H s       :     0.814511  s :     0.814511
      pz      :     0.023481  p :     0.060747
      px      :     0.013437
      py      :     0.023828

 22 H s       :     0.790686  s :     0.790686
      pz      :     0.013807  p :     0.058063
      px      :     0.015114
      py      :     0.029142

 23 H s       :     0.786969  s :     0.786969
      pz      :     0.022008  p :     0.058428
      px      :     0.013833
      py      :     0.022587

 24 H s       :     0.784493  s :     0.784493
      pz      :     0.013374  p :     0.058918
      px      :     0.014961
      py      :     0.030583

 25 H s       :     0.783718  s :     0.783718
      pz      :     0.013295  p :     0.059030
      px      :     0.018318
      py      :     0.027418

 26 H s       :     0.781682  s :     0.781682
      pz      :     0.013370  p :     0.059177
      px      :     0.014934
      py      :     0.030873

 27 H s       :     0.785541  s :     0.785541
      pz      :     0.013337  p :     0.058903
      px      :     0.018271
      py      :     0.027295

 28 H s       :     0.752076  s :     0.752076
      pz      :     0.012502  p :     0.057364
      px      :     0.014465
      py      :     0.030396

 29 H s       :     0.807350  s :     0.807350
      pz      :     0.012854  p :     0.061434
      px      :     0.015856
      py      :     0.032724

 30 H s       :     0.805911  s :     0.805911
      pz      :     0.024383  p :     0.061226
      px      :     0.016090
      py      :     0.020753

 31 H s       :     0.807713  s :     0.807713
      pz      :     0.012481  p :     0.061781
      px      :     0.035955
      py      :     0.013345

 32 H s       :     0.637364  s :     0.637364
      pz      :     0.028684  p :     0.147523
      px      :     0.062866
      py      :     0.055973



                      *****************************
                      * MAYER POPULATION ANALYSIS *
                      *****************************

  NA   - Mulliken gross atomic population
  ZA   - Total nuclear charge
  QA   - Mulliken gross atomic charge
  VA   - Mayer's total valence
  BVA  - Mayer's bonded valence
  FA   - Mayer's free valence

  ATOM       NA         ZA         QA         VA         BVA        FA
  0 C      6.4021     6.0000    -0.4021     3.9162     3.9162     0.0000
  1 C      6.0231     6.0000    -0.0231     3.9308     3.9308     0.0000
  2 C      6.3781     6.0000    -0.3781     3.8877     3.8877    -0.0000
  3 C      6.2081     6.0000    -0.2081     3.8348     3.8348    -0.0000
  4 C      5.7936     6.0000     0.2064     3.6384     3.6384    -0.0000
  5 C      6.2359     6.0000    -0.2359     3.9144     3.9144    -0.0000
  6 C      6.1728     6.0000    -0.1728     3.9041     3.9041     0.0000
  7 C      5.9896     6.0000     0.0104     3.7575     3.7575     0.0000
  8 C      6.1964     6.0000    -0.1964     3.9106     3.9106    -0.0000
  9 C      6.2212     6.0000    -0.2212     3.9278     3.9278    -0.0000
 10 C      5.9766     6.0000     0.0234     3.6378     3.6378    -0.0000
 11 C      6.4140     6.0000    -0.4140     3.9421     3.9421     0.0000
 12 C      5.7964     6.0000     0.2036     4.4554     4.4554    -0.0000
 13 O      8.3184     8.0000    -0.3184     2.1436     2.1436    -0.0000
 14 O      8.3339     8.0000    -0.3339     2.1931     2.1931    -0.0000
 15 H      0.8732     1.0000     0.1268     0.9699     0.9699     0.0000
 16 H      0.8869     1.0000     0.1131     0.9798     0.9798     0.0000
 17 H      0.8693     1.0000     0.1307     0.9712     0.9712     0.0000
 18 H      0.9192     1.0000     0.0808     0.9667     0.9667     0.0000
 19 H      0.8843     1.0000     0.1157     0.9787     0.9787    -0.0000
 20 H      0.8733     1.0000     0.1267     0.9703     0.9703     0.0000
 21 H      0.8751     1.0000     0.1249     0.9727     0.9727     0.0000
 22 H      0.8838     1.0000     0.1162     0.9794     0.9794    -0.0000
 23 H      0.8858     1.0000     0.1142     0.9700     0.9700    -0.0000
 24 H      0.8718     1.0000     0.1282     0.9710     0.9710    -0.0000
 25 H      0.8722     1.0000     0.1278     0.9728     0.9728     0.0000
 26 H      0.8659     1.0000     0.1341     0.9713     0.9713     0.0000
 27 H      0.8762     1.0000     0.1238     0.9734     0.9734     0.0000
 28 H      0.8699     1.0000     0.1301     0.9733     0.9733    -0.0000
 29 H      0.8645     1.0000     0.1355     0.9759     0.9759     0.0000
 30 H      0.8634     1.0000     0.1366     0.9701     0.9701     0.0000
 31 H      0.8640     1.0000     0.1360     0.9764     0.9764     0.0000
 32 H      0.6412     1.0000     0.3588     0.8937     0.8937    -0.0000

  Mayer bond orders larger than 0.100000
B(  0-C ,  1-C ) :   0.9994 B(  0-C , 15-H ) :   0.9653 B(  0-C , 16-H ) :   0.9614 
B(  0-C , 17-H ) :   0.9627 B(  1-C ,  2-C ) :   0.9746 B(  1-C ,  3-C ) :   0.9869 
B(  1-C , 18-H ) :   0.9397 B(  2-C , 19-H ) :   0.9625 B(  2-C , 20-H ) :   0.9659 
B(  2-C , 21-H ) :   0.9648 B(  3-C ,  4-C ) :   0.9245 B(  3-C , 22-H ) :   0.9540 
B(  3-C , 23-H ) :   0.9334 B(  4-C ,  5-C ) :   1.3065 B(  4-C ,  9-C ) :   1.3144 
B(  5-C ,  6-C ) :   1.4034 B(  5-C , 24-H ) :   0.9851 B(  6-C ,  7-C ) :   1.3347 
B(  6-C , 25-H ) :   0.9774 B(  7-C ,  8-C ) :   1.3311 B(  7-C , 10-C ) :   0.9019 
B(  8-C ,  9-C ) :   1.4117 B(  8-C , 26-H ) :   0.9814 B(  9-C , 27-H ) :   0.9813 
B( 10-C , 11-C ) :   0.9811 B( 10-C , 12-C ) :   0.9636 B( 10-C , 28-H ) :   0.8937 
B( 11-C , 29-H ) :   0.9639 B( 11-C , 30-H ) :   0.9604 B( 11-C , 31-H ) :   0.9563 
B( 12-C , 13-O ) :   1.2552 B( 12-C , 14-O ) :   2.1050 B( 13-O , 32-H ) :   0.8340 


-------
TIMINGS
-------

Total SCF time: 0 days 0 hours 0 min 31 sec 

Total time                  ....      31.439 sec
Sum of individual times     ....      31.370 sec  ( 99.8%)

SCF preparation             ....       0.289 sec  (  0.9%)
Fock matrix formation       ....      30.531 sec  ( 97.1%)
  Startup                   ....       0.023 sec  (  0.1% of F)
  Split-RI-J                ....       7.532 sec  ( 24.7% of F)
  XC integration            ....      11.327 sec  ( 37.1% of F)
    Basis function eval.    ....       3.199 sec  ( 28.2% of XC)
    Density eval.           ....       3.514 sec  ( 31.0% of XC)
    XC-Functional eval.     ....       0.165 sec  (  1.5% of XC)
    XC-Potential eval.      ....       4.103 sec  ( 36.2% of XC)
  CPCM terms                ....      11.577 sec  ( 37.9% of F)
Diagonalization             ....       0.000 sec  (  0.0%)
Density matrix formation    ....       0.043 sec  (  0.1%)
Total Energy calculation    ....       0.036 sec  (  0.1%)
Population analysis         ....       0.074 sec  (  0.2%)
Orbital Transformation      ....       0.055 sec  (  0.2%)
Orbital Orthonormalization  ....       0.000 sec  (  0.0%)
DIIS solution               ....       0.063 sec  (  0.2%)
SOSCF solution              ....       0.279 sec  (  0.9%)
Finished LeanSCF after  31.5 sec

Maximum memory used throughout the entire LEANSCF-calculation: 117.3 MB

-------------------------   --------------------
FINAL SINGLE POINT ENERGY      -656.124184138224
-------------------------   --------------------

                                *** OPTIMIZATION RUN DONE ***


------------------------------------------------------------------------------
                              ORCA PROPERTY CALCULATIONS
------------------------------------------------------------------------------

GBWName                                 ... Ibuprofen\Ibuprofen_PBE_def2-TZVP\Ibuprofen_PBE_def2-TZVP.orcainp.gbw
Number of atoms                         ...     33
Number of basis functions               ...    573
Max core memory                         ...   1024 MB

Electric properties:
Dipole moment                           ... YES
Quadrupole moment                       ...  NO
Static polarizability (Dipole/Dipole)   ...  NO
Static polarizability (Dipole/Quad.)    ...  NO
Static polarizability (Quad./Quad.)     ...  NO
Static polarizability (Velocity)        ...  NO

Atomic electric properties:
Dipole moment                           ...  NO
Quadrupole moment                       ...  NO
Static polarizability                   ...  NO

Choice of electric origin               ... Center of mass
Position of electric origin             ...    11.683987    -0.576544    -1.480939

General magnetic properties:
Magnetizability                         ...  NO

EPR properties:
g-Tensor (aka g-matrix)                 ...  NO
Zero-Field splitting spin-orbit         ...  NO
Zero-field splitting spin-spin          ...  NO
Hyperfine couplings                     ...  NO (   0 nuclei)
Quadrupole couplings                    ...  NO (   0 nuclei)
Contact density                         ...  NO (   0 nuclei)

NMR properties:
Chemical shifts                         ...  NO (   0 nuclei)
Spin-rotation constants                 ...  NO (   0 nuclei)
Spin-spin couplings                     ...  NO (   0 nuclei,    0 pairs)

Choice of magnetic origin               ... GIAO
Position of magnetic origin             ...     0.000000     0.000000     0.000000

Properties with geometric perturbations:
SCF Hessian                             ...  NO
IR spectrum                             ...  NO
VCD spectrum                            ...  NO
X-ray spectroscopy properties:
SCF XES/XAS/RIXS spectra                ...  NO


-------------
DIPOLE MOMENT
-------------

Method             : SCF
Type of density    : Electron Density
Multiplicity       :   1
Irrep              :   0
Energy             :  -656.1241841382235407 Eh
Relativity type    : 
Basis              : AO
                                X                 Y                 Z
Electronic contribution:     19.177651344       3.022556179      -0.574171480
Nuclear contribution   :    -21.071632404      -4.585218639       0.043883479
                        -----------------------------------------
Total Dipole Moment    :     -1.893981060      -1.562662460      -0.530288001
                        -----------------------------------------
Magnitude (a.u.)       :      2.512027783
Magnitude (Debye)      :      6.385067195



--------------------
Rotational spectrum 
--------------------
 
Rotational constants in cm-1:             0.048109             0.008481             0.007987 
Rotational constants in MHz :          1442.259811           254.256811           239.439428 

Dipole components along the rotational axes: 
x,y,z [a.u.] :     2.079783    -1.100076     0.880125 
x,y,z [Debye]:     5.286388    -2.796171     2.237099 

 

Dipole moment calculation done in   0.0 sec 

Maximum memory used throughout the entire PROP-calculation: 62.0 MB

--------------------------------
SUGGESTED CITATIONS FOR THIS RUN
--------------------------------

Below you find a list of papers that are relevant to this ORCA run
We neither can nor want to force you to cite these papers, but we appreciate if you do
You receive ORCA, which is the product of decades of hard work by many enthusiastic individuals, for free
The only thing we kindly ask in return is that you cite our papers,
We deeply appreciate it, if you show your appreciation for ORCA by not just citing the generic ORCA reference.

Please note that relegating all ORCA citations to the supporting information does *not* help us.
SI sections are not indexed - citations you put there will not count into any citation statistics
But we need these citations in order to attract the funding resources that allow us to do what we are doing

Therefore, if you are a happy ORCA user, please consider citing a few of the papers listed below in the main body of your paper

In addition to the list printed below, the program has created the file Ibuprofen\Ibuprofen_PBE_def2-TZVP\Ibuprofen_PBE_def2-TZVP.orcainp.bibtex that contains the list in bibtex format
You can import this file easily into all common literature databanks and citation aid programs


List of essential papers. We consider these as the minimum necessary citations

  1. Neese,F.
     Software update: the ORCA program system, version 5.0
     WIRES Comput. Molec. Sci., 2022 12(1)e1606
     doi.org/10.1002/wcms.1606

List of papers to cite with high priority. The work reported in these papers was absolutely
necessary for this run to complete.
Our perspective: the developers of density functionals and basis sets usually get cited in chemistry papers
Good! But without the algorithms to do something with them, the functionals or basis sets would not do anything.
Hence, in our opinion, the algorithm design and method developments papers are equally worthy of getting cited

  1. Neese,F.
     An improvement of the resolution of the identity approximation for the formation of the Coulomb matrix
     J. Comp. Chem., 2003 24(14)1740-1747
     doi.org/10.1002/jcc.10318
  2. Garcia-Rates,M.; Neese,F.
     Effect of the Solute Cavity on the Solvation Energy and its Derivatives within the Framework of the Gaussian Charge Scheme
     J. Comput. Chem., 2020 41 922-939
     doi.org/10.1002/jcc.26139
  3. Neese,F.
     The SHARK Integral Generation and Digestion System
     J. Comp. Chem., 2022  1-16
     doi.org/10.1002/jcc.26942

List of suggested additional citations. These are papers that are important in the 'surrounding' of 
of this run, or papers that preceded the highly important papers. If you like your results we are grateful for a citation.

  1. Neese,F.
     The ORCA program system
     WIRES Comput. Molec. Sci., 2012 2(1)73-78
     doi.org/10.1002/wcms.81
  2. Neese,F.
     Software update: the ORCA program system, version 4.0
     WIRES Comput. Molec. Sci., 2018 8(1)1-6
     doi.org/10.1002/wcms.1327
  3. Neese,F.; Wennmohs,F.; Becker,U.; Riplinger,C.
     The ORCA quantum chemistry program package
     J. Chem. Phys., 2020 152 Art. No. L224108
     doi.org/10.1063/5.0004608

List of optional additional citations

  1. Neese,F.
     Approximate second-order SCF convergence for spin unrestricted wavefunctions
     Chem. Phys. Lett., 2000 325(1-3)93-98
     doi.org/10.1016/s0009-2614(00)00662-x

Timings for individual modules:

Sum of individual times          ...     1367.291 sec (=  22.788 min)
Startup calculation              ...       26.228 sec (=   0.437 min)   1.9 %
SCF iterations                   ...      925.667 sec (=  15.428 min)  67.7 %
Property calculations            ...        0.134 sec (=   0.002 min)   0.0 %
SCF Gradient evaluation          ...      415.059 sec (=   6.918 min)  30.4 %
Geometry relaxation              ...        0.203 sec (=   0.003 min)   0.0 %
                             ****ORCA TERMINATED NORMALLY****
TOTAL RUN TIME: 0 days 0 hours 22 minutes 49 seconds 300 msec
