
                                 *****************
                                 * O   R   C   A *
                                 *****************

                                            #,                                       
                                            ###                                      
                                            ####                                     
                                            #####                                    
                                            ######                                   
                                           ########,                                 
                                     ,,################,,,,,                         
                               ,,#################################,,                 
                          ,,##########################################,,             
                       ,#########################################, ''#####,          
                    ,#############################################,,   '####,        
                  ,##################################################,,,,####,       
                ,###########''''           ''''###############################       
              ,#####''   ,,,,##########,,,,          '''####'''          '####       
            ,##' ,,,,###########################,,,                        '##       
           ' ,,###''''                  '''############,,,                           
         ,,##''                                '''############,,,,        ,,,,,,###''
      ,#''                                            '''#######################'''  
     '                                                          ''''####''''         
             ,#######,   #######,   ,#######,      ##                                
            ,#'     '#,  ##    ##  ,#'     '#,    #''#        ,####,   ,####,        
            ##       ##  ##   ,#'  ##            #'  '#       #'       #'  '#        
            ##       ##  #######   ##           ,######,      #####,   #    #        
            '#,     ,#'  ##    ##  '#,     ,#' ,#      #,     #,   #   #,  ,#        
             '#######'   ##     ##  '#######'  #'      '#     '####' # '####'        



                #########################################################
                #                        -***-                          #
                #          Department of theory and spectroscopy        #
                #                                                       #
                #                      Frank Neese                      #
                #                                                       #
                #     Directorship, Architecture, Infrastructure        #
                #                    SHARK, DRIVERS                     #
                #        Core code/Algorithms in most modules           #
                #                                                       #
                #        Max Planck Institute fuer Kohlenforschung      #
                #                Kaiser Wilhelm Platz 1                 #
                #                 D-45470 Muelheim/Ruhr                 #
                #                      Germany                          #
                #                                                       #
                #                  All rights reserved                  #
                #                        -***-                          #
                #########################################################


                         Program Version 6.0.0  -   RELEASE   -


 With contributions from (in alphabetic order):
   Daniel Aravena         : Magnetic Suceptibility
   Michael Atanasov       : Ab Initio Ligand Field Theory (pilot matlab implementation)
   Alexander A. Auer      : GIAO ZORA, VPT2 properties, NMR spectrum
   Ute Becker             : All parallelization in ORCA, NUMFREQ, NUMCALC
   Giovanni Bistoni       : ED, misc. LED, open-shell LED, HFLD
   Martin Brehm           : Molecular dynamics
   Dmytro Bykov           : pre 5.0 version of the SCF Hessian
   Marcos Casanova-Páez   : Triplet and SCS-CIS(D). UHF-(DLPNO)-IP/EA/STEOM-CCSD. UHF-CVS-IP/STEOM-CCSD
   Vijay G. Chilkuri      : MRCI spin determinant printing, contributions to CSF-ICE
   Pauline Colinet        : FMM embedding
   Dipayan Datta          : RHF DLPNO-CCSD density
   Achintya Kumar Dutta   : EOM-CC, STEOM-CC
   Nicolas Foglia         : Exact transition moments, OPA infrastructure, MCD improvements
   Dmitry Ganyushin       : Spin-Orbit,Spin-Spin,Magnetic field MRCI
   Miquel Garcia          : C-PCM and meta-GGA Hessian, CCSD/C-PCM, Gaussian charge scheme
   Tiago L. C. Gouveia    : GS-ROHF, GS-ROCIS
   Yang Guo               : DLPNO-NEVPT2, F12-NEVPT2, CIM, IAO-localization
   Andreas Hansen         : Spin unrestricted coupled pair/coupled cluster methods
   Ingolf Harden          : AUTO-CI MPn and infrastructure 
   Benjamin Helmich-Paris : MC-RPA, TRAH-(SCF,CASSCF), AVAS, COSX integrals, SCF dyn. polar.
   Lee Huntington         : MR-EOM, pCC
   Robert Izsak           : Overlap fitted RIJCOSX, COSX-SCS-MP3, EOM
   Riya Kayal             : Wick's Theorem for AUTO-CI, AUTO-CI UHF-CCSDT
   Emily Kempfer          : AUTO-CI, RHF CISDT and CCSDT
   Christian Kollmar      : KDIIS, OOCD, Brueckner-CCSD(T), CCSD density, CASPT2, CASPT2-K, improved NEVPT2
   Axel Koslowski         : Symmetry handling
   Simone Kossmann        : Meta GGA functionals, TD-DFT gradient, OOMP2, (MP2 Hessian; deprecated post 5.0)
   Lucas Lang             : DCDCAS
   Marvin Lechner         : AUTO-CI (C++ implementation), FIC-MRCC
   Spencer Leger          : CASSCF response
   Dagmar Lenk            : GEPOL surface, SMD, ORCA-2-JSON
   Dimitrios Liakos       : Extrapolation schemes; Compound Job, initial MDCI parallelization
   Dimitrios Manganas     : Further ROCIS development; embedding schemes. LFT, Crystal Embedding
   Dimitrios Pantazis     : SARC Basis sets
   Anastasios Papadopoulos: AUTO-CI, single reference methods and gradients
   Taras Petrenko         : pre 6.0 DFT Hessian and TD-DFT gradient, (ASA, deprecated), ECA, 1-Electron XAS/XES, NRVS
   Peter Pinski           : DLPNO-MP2, DLPNO-MP2 Gradient
   Christoph Reimann      : Effective Core Potentials
   Marius Retegan         : Local ZFS, SOC
   Christoph Riplinger    : Optimizer, TS searches, QM/MM, DLPNO-CCSD(T), (RO)-DLPNO pert. Triples
   Michael Roemelt        : Original ROCIS implementation
   Masaaki Saitow         : Open-shell DLPNO-CCSD energy and density
   Barbara Sandhoefer     : DKH picture change effects
   Kantharuban Sivalingam : CASSCF convergence/infrastructure, NEVPT2 and variants, FIC-MRCI
   Bernardo de Souza      : ESD, SOC TD-DFT
   Georgi Stoychev        : AutoAux, RI-MP2 NMR, DLPNO-MP2 response, X2C
   Van Anh Tran           : RI-MP2 g-tensors
   Willem Van den Heuvel  : Paramagnetic NMR
   Zikuan Wang            : NOTCH, Electric field optimization 
   Frank Wennmohs         : Technical directorship and infrastructure
   Hang Xu                : AUTO-CI-Response properties 


 We gratefully acknowledge several colleagues who have allowed us to
 interface, adapt or use parts of their codes:
   Stefan Grimme, W. Hujo, H. Kruse, P. Pracht,  : VdW corrections, initial TS optimization,
                  C. Bannwarth, S. Ehlert,         DFT functionals, gCP, sTDA/sTD-DF
                  L. Wittmann, M. Mueller
   Ed Valeev, F. Pavosevic, A. Kumar             : LibInt (2-el integral package), F12 methods
   Garnet Chan, S. Sharma, J. Yang, R. Olivares  : DMRG
   Ulf Ekstrom                                   : XCFun DFT Library
   Mihaly Kallay                                 : mrcc  (arbitrary order and MRCC methods)
   Frank Weinhold                                : gennbo (NPA and NBO analysis)
   Simon Mueller                                 : openCOSMO-RS
   Christopher J. Cramer and Donald G. Truhlar   : smd solvation model
   Lars Goerigk                                  : TD-DFT with DH, B97 family of functionals
   V. Asgeirsson, H. Jonsson                     : NEB implementation
   FAccTs GmbH                                   : IRC, NEB, NEB-TS, DLPNO-Multilevel, CI-OPT
                                                   MM, QMMM, 2- and 3-layer-ONIOM, Crystal-QMMM,
                                                   LR-CPCM, SF, NACMEs, symmetry and pop. for TD-DFT,
                                                   nearIR, NL-DFT gradient (VV10), updates on ESD,
                                                   ML-optimized integration grids, MBIS, APM,
                                                   GOAT, DOCKER, SOLVATOR, interface openCOSMO-RS
   S Lehtola, MJT Oliveira, MAL Marques          : LibXC Library
   Liviu Ungur et al                             : ANISO software


 Your calculation uses the libint2 library for the computation of 2-el integrals
 For citations please refer to: http://libint.valeyev.net

 Your ORCA version has been built with support for libXC version: 6.2.2
 For citations please refer to: https://libxc.gitlab.io

 This ORCA versions uses:
   CBLAS   interface :  Fast vector & matrix operations
   LAPACKE interface :  Fast linear algebra routines
   Shared memory     :  Shared parallel matrices


Warning: RI is on but no J-basis has been assigned. Assigning Def2/J (nothing to worry about!)
================================================================================

----- Orbital basis set information -----
Your calculation utilizes the basis: def2-TZVP
   F. Weigend and R. Ahlrichs, Phys. Chem. Chem. Phys. 7, 3297 (2005).

----- AuxJ basis set information -----
Your calculation utilizes the auxiliary basis: def2/J
   F. Weigend, Phys. Chem. Chem. Phys. 8, 1057 (2006).

================================================================================
                                        WARNINGS
                       Please study these warnings very carefully!
================================================================================


WARNING: Geometry Optimization
  ===> : Switching off AutoStart
         For restart on a previous wavefunction, please use MOREAD

================================================================================
                                       INPUT FILE
================================================================================
NAME = Diclofenac\Diclofenac_B3LYP_def2-TZVP\Diclofenac_B3LYP_def2-TZVP.orcainp
|  1> # ORCA input file
|  2> # 
|  3> !B3LYP def2-TZVP Opt CPCM(WATER)
|  4> * xyz 0 1
|  5>    O        2.14551        -0.60885         0.52181
|  6>    C        2.63420        -1.80737         0.13543
|  7>    O        2.17162        -2.83239         0.62109
|  8>    C        3.65654        -1.73250        -0.95851
|  9>    C        4.96102        -1.03926        -0.61508
| 10>    C        6.12539        -1.84007        -0.61083
| 11>    C        7.39004        -1.27991        -0.47544
| 12>    C        7.51670         0.09058        -0.30438
| 13>    C        6.37165         0.89145        -0.25876
| 14>    C        5.08221         0.35792        -0.43094
| 15>    N        3.94879         1.20390        -0.53378
| 16>    C        3.84026         2.58058        -0.86585
| 17>    C        4.60199         3.19619        -1.88448
| 18>   Cl        5.54000         2.29292        -3.03255
| 19>    C        4.53823         4.57834        -2.11797
| 20>    C        3.67875         5.38423        -1.37796
| 21>    C        2.87476         4.80277        -0.40530
| 22>    C        2.95948         3.42647        -0.14720
| 23>   Cl        1.91108         2.79105         1.07992
| 24>    H        1.46203        -0.84108         1.18918
| 25>    H        3.20949        -1.27698        -1.84977
| 26>    H        3.86501        -2.77055        -1.24335
| 27>    H        6.05372        -2.91564        -0.76619
| 28>    H        8.27654        -1.91040        -0.52459
| 29>    H        8.50112         0.54295        -0.23421
| 30>    H        6.50961         1.96135        -0.11755
| 31>    H        3.12683         0.82883        -0.05232
| 32>    H        5.14146         5.02526        -2.90632
| 33>    H        3.62186         6.44998        -1.58160
| 34>    H        2.17804         5.43109         0.14743
| 35> *
| 36> 
| 37>                          ****END OF INPUT****
================================================================================

                       *****************************
                       * Geometry Optimization Run *
                       *****************************

Geometry optimization settings:
Update method            Update   .... BFGS
Choice of coordinates    CoordSys .... (2022) Redundant Internals
Initial Hessian          InHess   .... Almloef's Model
Max. no of cycles        MaxIter  .... 90

Convergence Tolerances:
Energy Change            TolE     ....  5.0000e-06 Eh
Max. Gradient            TolMAXG  ....  3.0000e-04 Eh/bohr
RMS Gradient             TolRMSG  ....  1.0000e-04 Eh/bohr
Max. Displacement        TolMAXD  ....  4.0000e-03 bohr
RMS Displacement         TolRMSD  ....  2.0000e-03 bohr
Strict Convergence                .... False

------------------------------------------------------------------------------
                        ORCA OPTIMIZATION COORDINATE SETUP
------------------------------------------------------------------------------

The optimization will be done in redundant internal coordinates (2022)
Making redundant internal coordinates   ...  (2022 redundants) done
Evaluating the initial hessian          ...  (Almloef) done
Evaluating the coordinates              ...  done
Calculating the B-matrix                .... done
Calculating the G-matrix                .... done
Diagonalizing the G-matrix              .... done
Small eigenvalue found = 6.908e-03
Small eigenvalue found = 1.854e-02
Small eigenvalue found = 2.219e-02
The first mode is                       ....   66
The number of degrees of freedom        ....   84

    -----------------------------------------------------------------
                    Redundant Internal Coordinates


    -----------------------------------------------------------------
         Definition                    Initial Value    Approx d2E/dq
    -----------------------------------------------------------------
      1. B(C   1,O   0)                  1.3508         0.646364   
      2. B(O   2,C   1)                  1.2250         1.026115   
      3. B(C   3,C   1)                  1.4992         0.418385   
      4. B(C   4,C   3)                  1.5166         0.392368   
      5. B(C   5,C   4)                  1.4132         0.573799   
      6. B(C   6,C   5)                  1.3898         0.625334   
      7. B(C   7,C   6)                  1.3869         0.631906   
      8. B(C   8,C   7)                  1.3981         0.606535   
      9. B(C   9,C   8)                  1.4060         0.589038   
     10. B(C   9,C   4)                  1.4145         0.571096   
     11. B(N  10,C   9)                  1.4181         0.504783   
     12. B(C  11,N  10)                  1.4203         0.500620   
     13. B(C  12,C  11)                  1.4131         0.573990   
     14. B(Cl 13,C  12)                  1.7360         0.393237   
     15. B(C  14,C  12)                  1.4032         0.595260   
     16. B(C  15,C  14)                  1.3913         0.621767   
     17. B(C  16,C  15)                  1.3894         0.626067   
     18. B(C  17,C  16)                  1.4029         0.595982   
     19. B(C  17,C  11)                  1.4170         0.565892   
     20. B(Cl 18,C  17)                  1.7346         0.395366   
     21. B(H  19,O   0)                  0.9831         0.477677   
     22. B(H  20,C   3)                  1.0962         0.351966   
     23. B(H  21,C   3)                  1.0964         0.351704   
     24. B(H  22,C   5)                  1.0891         0.361301   
     25. B(H  23,C   6)                  1.0890         0.361490   
     26. B(H  24,C   7)                  1.0857         0.365895   
     27. B(H  25,C   8)                  1.0880         0.362807   
     28. B(H  26,N  10)                  1.0238         0.411368   
     29. B(H  26,Cl 18)                  2.5711         0.003503   
     30. B(H  26,O   0)                  1.8329         0.021053   
     31. B(H  27,C  14)                  1.0886         0.361914   
     32. B(H  28,C  15)                  1.0865         0.364731   
     33. B(H  29,C  16)                  1.0889         0.361551   
     34. A(C   1,O   0,H  19)          103.6571         0.367383   
     35. A(O   0,C   1,O   2)          119.5010         0.473010   
     36. A(O   0,C   1,C   3)          114.2761         0.405042   
     37. A(O   2,C   1,C   3)          126.0590         0.439894   
     38. A(C   4,C   3,H  20)          110.1775         0.325720   
     39. A(C   4,C   3,H  21)          109.1501         0.325680   
     40. A(C   1,C   3,H  20)          109.6284         0.329185   
     41. A(C   1,C   3,H  21)          105.7803         0.329145   
     42. A(H  20,C   3,H  21)          105.0544         0.288729   
     43. A(C   1,C   3,C   4)          116.3682         0.373621   
     44. A(C   5,C   4,C   9)          119.2593         0.421823   
     45. A(C   3,C   4,C   9)          123.6885         0.394389   
     46. A(C   3,C   4,C   5)          116.7654         0.394715   
     47. A(C   4,C   5,C   6)          121.4430         0.428729   
     48. A(C   6,C   5,H  22)          118.1535         0.353621   
     49. A(C   4,C   5,H  22)          120.3305         0.348519   
     50. A(C   5,C   6,C   7)          119.5646         0.436227   
     51. A(C   5,C   6,H  23)          120.2008         0.353652   
     52. A(C   7,C   6,H  23)          120.2219         0.354279   
     53. A(C   8,C   7,H  24)          120.1224         0.352551   
     54. A(C   6,C   7,H  24)          120.1671         0.355007   
     55. A(C   6,C   7,C   8)          119.6882         0.433837   
     56. A(C   7,C   8,C   9)          121.9876         0.428397   
     57. A(C   9,C   8,H  25)          120.3539         0.350309   
     58. A(C   7,C   8,H  25)          117.6266         0.352046   
     59. A(C   8,C   9,N  10)          121.0307         0.411901   
     60. A(C   4,C   9,N  10)          120.7547         0.409648   
     61. A(C   4,C   9,C   8)          117.9911         0.423804   
     62. A(C   9,N  10,C  11)          131.0165         0.397669   
     63. A(C   9,N  10,H  26)          112.8955         0.343478   
     64. A(C  11,N  10,H  26)          113.8103         0.343001   
     65. A(C  12,C  11,C  17)          116.1425         0.421160   
     66. A(N  10,C  11,C  17)          120.5012         0.408385   
     67. A(N  10,C  11,C  12)          123.3403         0.409414   
     68. A(Cl 13,C  12,C  14)          115.2783         0.415213   
     69. A(C  11,C  12,C  14)          121.6396         0.424985   
     70. A(C  11,C  12,Cl 13)          122.7723         0.412537   
     71. A(C  15,C  14,H  27)          119.3193         0.353380   
     72. A(C  12,C  14,H  27)          119.9803         0.350785   
     73. A(C  12,C  14,C  15)          120.6711         0.431121   
     74. A(C  16,C  15,H  28)          120.7563         0.354257   
     75. A(C  14,C  15,H  28)          120.0537         0.353844   
     76. A(C  14,C  15,C  16)          119.1689         0.435050   
     77. A(C  15,C  16,H  29)          118.9535         0.353732   
     78. A(C  15,C  16,C  17)          120.2923         0.431749   
     79. A(C  17,C  16,H  29)          120.7537         0.350798   
     80. A(C  16,C  17,Cl 18)          116.9396         0.415701   
     81. A(C  11,C  17,Cl 18)          121.0523         0.411893   
     82. A(C  11,C  17,C  16)          121.9991         0.423998   
     83. D(C   3,C   1,O   0,H  19)    176.5486         0.034062   
     84. D(O   2,C   1,O   0,H  19)      0.9229         0.034062   
     85. D(C   4,C   3,C   1,O   0)     65.2629         0.012947   
     86. D(H  21,C   3,C   1,O   0)   -173.3670         0.012947   
     87. D(H  20,C   3,C   1,O   2)    114.7124         0.012947   
     88. D(H  20,C   3,C   1,O   0)    -60.5774         0.012947   
     89. D(C   4,C   3,C   1,O   2)   -119.4473         0.012947   
     90. D(C   5,C   4,C   3,H  21)     -5.0968         0.011447   
     91. D(C   9,C   4,C   3,H  20)     53.8239         0.011447   
     92. D(C   9,C   4,C   3,C   1)    -71.7397         0.011447   
     93. D(C   5,C   4,C   3,H  20)   -119.9655         0.011447   
     94. D(C   5,C   4,C   3,C   1)    114.4708         0.011447   
     95. D(H  22,C   5,C   4,C   3)     -4.9864         0.022598   
     96. D(C   6,C   5,C   4,C   3)    171.8490         0.022598   
     97. D(C   6,C   5,C   4,C   9)     -2.2288         0.022598   
     98. D(H  22,C   5,C   4,C   9)   -179.0642         0.022598   
     99. D(H  23,C   6,C   5,H  22)     -0.0425         0.027088   
    100. D(H  23,C   6,C   5,C   4)   -176.9446         0.027088   
    101. D(C   7,C   6,C   5,H  22)    178.6624         0.027088   
    102. D(C   7,C   6,C   5,C   4)      1.7603         0.027088   
    103. D(H  24,C   7,C   6,H  23)      0.9552         0.027697   
    104. D(H  24,C   7,C   6,C   5)   -177.7494         0.027697   
    105. D(C   8,C   7,C   6,H  23)    179.2409         0.027697   
    106. D(C   8,C   7,C   6,C   5)      0.5362         0.027697   
    107. D(H  25,C   8,C   7,H  24)     -2.0630         0.025391   
    108. D(H  25,C   8,C   7,C   6)    179.6506         0.025391   
    109. D(C   9,C   8,C   7,H  24)    175.8886         0.025391   
    110. D(C   9,C   8,C   7,C   6)     -2.3979         0.025391   
    111. D(N  10,C   9,C   4,C   3)      1.3796         0.022377   
    112. D(C   8,C   9,C   4,C   5)      0.3996         0.022377   
    113. D(C   8,C   9,C   4,C   3)   -173.2438         0.022377   
    114. D(N  10,C   9,C   8,H  25)      5.1811         0.023873   
    115. D(N  10,C   9,C   8,C   7)   -172.7157         0.023873   
    116. D(C   4,C   9,C   8,H  25)    179.7889         0.023873   
    117. D(C   4,C   9,C   8,C   7)      1.8922         0.023873   
    118. D(N  10,C   9,C   4,C   5)    175.0230         0.022377   
    119. D(H  26,N  10,C   9,C   8)   -141.4292         0.020157   
    120. D(H  26,N  10,C   9,C   4)     44.1118         0.020157   
    121. D(C  11,N  10,C   9,C   8)     20.0388         0.020157   
    122. D(C  11,N  10,C   9,C   4)   -154.4202         0.020157   
    123. D(C  17,C  11,N  10,H  26)     23.3394         0.019815   
    124. D(C  17,C  11,N  10,C   9)   -137.9957         0.019815   
    125. D(C  12,C  11,N  10,H  26)   -158.1729         0.019815   
    126. D(C  12,C  11,N  10,C   9)     40.4920         0.019815   
    127. D(C  14,C  12,C  11,C  17)      3.2903         0.022614   
    128. D(C  14,C  12,C  11,N  10)   -175.2582         0.022614   
    129. D(Cl 13,C  12,C  11,C  17)   -170.0142         0.022614   
    130. D(Cl 13,C  12,C  11,N  10)     11.4373         0.022614   
    131. D(H  27,C  14,C  12,Cl 13)     -6.5896         0.024406   
    132. D(H  27,C  14,C  12,C  11)    179.6345         0.024406   
    133. D(C  15,C  14,C  12,Cl 13)    171.4297         0.024406   
    134. D(C  15,C  14,C  12,C  11)     -2.3462         0.024406   
    135. D(H  28,C  15,C  14,H  27)     -0.6550         0.026761   
    136. D(H  28,C  15,C  14,C  12)   -178.6872         0.026761   
    137. D(C  16,C  15,C  14,H  27)    177.6875         0.026761   
    138. D(C  16,C  15,C  14,C  12)     -0.3448         0.026761   
    139. D(H  29,C  16,C  15,H  28)      0.4728         0.027155   
    140. D(H  29,C  16,C  15,C  14)   -177.8577         0.027155   
    141. D(C  17,C  16,C  15,H  28)   -179.7816         0.027155   
    142. D(C  17,C  16,C  15,C  14)      1.8879         0.027155   
    143. D(Cl 18,C  17,C  11,N  10)     -4.2697         0.021954   
    144. D(C  16,C  17,C  11,C  12)     -1.7328         0.021954   
    145. D(C  16,C  17,C  11,N  10)    176.8599         0.021954   
    146. D(Cl 18,C  17,C  16,H  29)      0.0062         0.024469   
    147. D(Cl 18,C  17,C  16,C  15)   -179.7348         0.024469   
    148. D(C  11,C  17,C  16,H  29)    178.9207         0.024469   
    149. D(C  11,C  17,C  16,C  15)     -0.8203         0.024469   
    150. D(Cl 18,C  17,C  11,C  12)    177.1377         0.021954   
    -----------------------------------------------------------------

Number of atoms                         .... 30
Number of degrees of freedom            .... 150


         *************************************************************
         *                GEOMETRY OPTIMIZATION CYCLE   1            *
         *************************************************************
---------------------------------
CARTESIAN COORDINATES (ANGSTROEM)
---------------------------------
  O      2.145510   -0.608850    0.521810
  C      2.634200   -1.807370    0.135430
  O      2.171620   -2.832390    0.621090
  C      3.656540   -1.732500   -0.958510
  C      4.961020   -1.039260   -0.615080
  C      6.125390   -1.840070   -0.610830
  C      7.390040   -1.279910   -0.475440
  C      7.516700    0.090580   -0.304380
  C      6.371650    0.891450   -0.258760
  C      5.082210    0.357920   -0.430940
  N      3.948790    1.203900   -0.533780
  C      3.840260    2.580580   -0.865850
  C      4.601990    3.196190   -1.884480
  Cl     5.540000    2.292920   -3.032550
  C      4.538230    4.578340   -2.117970
  C      3.678750    5.384230   -1.377960
  C      2.874760    4.802770   -0.405300
  C      2.959480    3.426470   -0.147200
  Cl     1.911080    2.791050    1.079920
  H      1.462030   -0.841080    1.189180
  H      3.209490   -1.276980   -1.849770
  H      3.865010   -2.770550   -1.243350
  H      6.053720   -2.915640   -0.766190
  H      8.276540   -1.910400   -0.524590
  H      8.501120    0.542950   -0.234210
  H      6.509610    1.961350   -0.117550
  H      3.126830    0.828830   -0.052320
  H      5.141460    5.025260   -2.906320
  H      3.621860    6.449980   -1.581600
  H      2.178040    5.431090    0.147430

----------------------------
CARTESIAN COORDINATES (A.U.)
----------------------------
  NO LB      ZA    FRAG     MASS         X           Y           Z
   0 O     8.0000    0    15.999    4.054426   -1.150560    0.986078
   1 C     6.0000    0    12.011    4.977917   -3.415434    0.255926
   2 O     8.0000    0    15.999    4.103767   -5.352441    1.173690
   3 C     6.0000    0    12.011    6.909859   -3.273951   -1.811321
   4 C     6.0000    0    12.011    9.374969   -1.963917   -1.162333
   5 C     6.0000    0    12.011   11.575310   -3.477228   -1.154301
   6 C     6.0000    0    12.011   13.965152   -2.418679   -0.898451
   7 C     6.0000    0    12.011   14.204504    0.171171   -0.575195
   8 C     6.0000    0    12.011   12.040674    1.684596   -0.488986
   9 C     6.0000    0    12.011    9.603985    0.676371   -0.814359
  10 N     7.0000    0    14.007    7.462132    2.275041   -1.008698
  11 C     6.0000    0    12.011    7.257040    4.876589   -1.636219
  12 C     6.0000    0    12.011    8.696501    6.039924   -3.561151
  13 Cl   17.0000    0    35.453   10.469083    4.332991   -5.730689
  14 C     6.0000    0    12.011    8.576012    8.651809   -4.002383
  15 C     6.0000    0    12.011    6.951830   10.174720   -2.603967
  16 C     6.0000    0    12.011    5.432509    9.075920   -0.765906
  17 C     6.0000    0    12.011    5.592607    6.475090   -0.278168
  18 Cl   17.0000    0    35.453    3.611418    5.274320    2.040753
  19 H     1.0000    0     1.008    2.762836   -1.589411    2.247225
  20 H     1.0000    0     1.008    6.065057   -2.413142   -3.495559
  21 H     1.0000    0     1.008    7.303810   -5.235581   -2.349591
  22 H     1.0000    0     1.008   11.439873   -5.509761   -1.447889
  23 H     1.0000    0     1.008   15.640394   -3.610133   -0.991331
  24 H     1.0000    0     1.008   16.064789    1.026027   -0.442593
  25 H     1.0000    0     1.008   12.301380    3.706414   -0.222137
  26 H     1.0000    0     1.008    5.908852    1.566262   -0.098870
  27 H     1.0000    0     1.008    9.715951    9.496365   -5.492149
  28 H     1.0000    0     1.008    6.844323   12.188696   -2.988791
  29 H     1.0000    0     1.008    4.115899   10.263273    0.278602

--------------------------------
INTERNAL COORDINATES (ANGSTROEM)
--------------------------------
 O      0   0   0     0.000000000000     0.00000000     0.00000000
 C      1   0   0     1.350761863135     0.00000000     0.00000000
 O      2   1   0     1.224953832763   119.50099921     0.00000000
 C      2   1   3     1.499162871772   114.27607165   175.62566684
 C      4   2   1     1.516639025246   116.36824362    65.26289689
 C      5   4   2     1.413178055130   116.76544831   114.47081137
 C      6   5   4     1.389765915613   121.44301390   171.84896295
 C      7   6   5     1.386920011861   119.56458827     1.76033960
 C      8   7   6     1.398074906362   119.68818776     0.53623487
 C      9   8   7     1.406042576489   121.98762606   357.60214534
 N     10   9   8     1.418061748444   121.03074786   187.28429275
 C     11  10   9     1.420315833961   131.01652389    20.03882677
 C     12  11  10     1.413087167127   123.34026421    40.49199975
 Cl    13  12  11     1.736036917205   122.77232188    11.43732800
 C     13  12  11     1.403182646771   121.63963324   184.74177848
 C     15  13  12     1.391322882224   120.67111472   357.65378048
 C     16  15  13     1.389447058113   119.16887824   359.65524444
 C     17  16  15     1.402852372276   120.29227762     1.88789425
 Cl    18  17  16     1.734567563054   116.93959268   180.26518852
 H      1   2   3     0.983086161127   103.65714607     0.92291366
 H      4   2   1     1.096219211882   109.62841757   299.42262521
 H      4   2   1     1.096422076118   105.78026083   186.63303730
 H      6   5   4     1.089093266621   120.33047974   355.01358530
 H      7   6   5     1.088951611689   120.20079991   183.05541286
 H      8   7   6     1.085654264580   120.16713801   182.25059477
 H      9   8   7     1.087961045121   117.62656071   179.65060092
 H     11  10   9     1.023767296850   112.89546782   218.57077884
 H     15  13  12     1.088632004766   119.98032175   179.63447267
 H     16  15  13     1.086521414515   120.05368758   181.31275087
 H     17  16  15     1.088905521016   118.95349634   182.14227013

---------------------------
INTERNAL COORDINATES (A.U.)
---------------------------
 O      0   0   0     0.000000000000     0.00000000     0.00000000
 C      1   0   0     2.552569993470     0.00000000     0.00000000
 O      2   1   0     2.314827270619   119.50099921     0.00000000
 C      2   1   3     2.833007257792   114.27607165   175.62566684
 C      4   2   1     2.866032401733   116.36824362    65.26289689
 C      5   4   2     2.670519502662   116.76544831   114.47081137
 C      6   5   4     2.626276970767   121.44301390   171.84896295
 C      7   6   5     2.620898992072   119.56458827     1.76033960
 C      8   7   6     2.641978687732   119.68818776     0.53623487
 C      9   8   7     2.657035402197   121.98762606   357.60214534
 N     10   9   8     2.679748345549   121.03074786   187.28429275
 C     11  10   9     2.684007949858   131.01652389    20.03882677
 C     12  11  10     2.670347749229   123.34026421    40.49199975
 Cl    13  12  11     3.280634331895   122.77232188    11.43732800
 C     13  12  11     2.651630918268   121.63963324   184.74177848
 C     15  13  12     2.629219211261   120.67111472   357.65378048
 C     16  15  13     2.625674417417   119.16887824   359.65524444
 C     17  16  15     2.651006789923   120.29227762     1.88789425
 Cl    18  17  16     3.277857654956   116.93959268   180.26518852
 H      1   2   3     1.857763610579   103.65714607     0.92291366
 H      4   2   1     2.071554093201   109.62841757   299.42262521
 H      4   2   1     2.071937451049   105.78026083   186.63303730
 H      6   5   4     2.058088008212   120.33047974   355.01358530
 H      7   6   5     2.057820319184   120.20079991   183.05541286
 H      8   7   6     2.051589236179   120.16713801   182.25059477
 H      9   8   7     2.055948419653   117.62656071   179.65060092
 H     11  10   9     1.934639815912   112.89546782   218.57077884
 H     15  13  12     2.057216349629   119.98032175   179.63447267
 H     16  15  13     2.053227912074   120.05368758   181.31275087
 H     17  16  15     2.057733220436   118.95349634   182.14227013

---------------------
BASIS SET INFORMATION
---------------------
There are 5 groups of distinct atoms

 Group   1 Type O   : 11s6p2d1f contracted to 5s3p2d1f pattern {62111/411/11/1}
 Group   2 Type C   : 11s6p2d1f contracted to 5s3p2d1f pattern {62111/411/11/1}
 Group   3 Type N   : 11s6p2d1f contracted to 5s3p2d1f pattern {62111/411/11/1}
 Group   4 Type Cl  : 14s9p3d1f contracted to 5s5p2d1f pattern {73211/51111/21/1}
 Group   5 Type H   : 5s1p contracted to 3s1p pattern {311/1}

Atom   0O    basis set group =>   1
Atom   1C    basis set group =>   2
Atom   2O    basis set group =>   1
Atom   3C    basis set group =>   2
Atom   4C    basis set group =>   2
Atom   5C    basis set group =>   2
Atom   6C    basis set group =>   2
Atom   7C    basis set group =>   2
Atom   8C    basis set group =>   2
Atom   9C    basis set group =>   2
Atom  10N    basis set group =>   3
Atom  11C    basis set group =>   2
Atom  12C    basis set group =>   2
Atom  13Cl   basis set group =>   4
Atom  14C    basis set group =>   2
Atom  15C    basis set group =>   2
Atom  16C    basis set group =>   2
Atom  17C    basis set group =>   2
Atom  18Cl   basis set group =>   4
Atom  19H    basis set group =>   5
Atom  20H    basis set group =>   5
Atom  21H    basis set group =>   5
Atom  22H    basis set group =>   5
Atom  23H    basis set group =>   5
Atom  24H    basis set group =>   5
Atom  25H    basis set group =>   5
Atom  26H    basis set group =>   5
Atom  27H    basis set group =>   5
Atom  28H    basis set group =>   5
Atom  29H    basis set group =>   5
---------------------------------
AUXILIARY/J BASIS SET INFORMATION
---------------------------------
There are 5 groups of distinct atoms

 Group   1 Type O   : 12s5p4d2f1g contracted to 6s4p3d1f1g pattern {711111/2111/211/2/1}
 Group   2 Type C   : 12s5p4d2f1g contracted to 6s4p3d1f1g pattern {711111/2111/211/2/1}
 Group   3 Type N   : 12s5p4d2f1g contracted to 6s4p3d1f1g pattern {711111/2111/211/2/1}
 Group   4 Type Cl  : 14s5p5d2f1g contracted to 8s4p3d1f1g pattern {71111111/2111/311/2/1}
 Group   5 Type H   : 5s2p1d contracted to 3s1p1d pattern {311/2/1}

Atom   0O    basis set group =>   1
Atom   1C    basis set group =>   2
Atom   2O    basis set group =>   1
Atom   3C    basis set group =>   2
Atom   4C    basis set group =>   2
Atom   5C    basis set group =>   2
Atom   6C    basis set group =>   2
Atom   7C    basis set group =>   2
Atom   8C    basis set group =>   2
Atom   9C    basis set group =>   2
Atom  10N    basis set group =>   3
Atom  11C    basis set group =>   2
Atom  12C    basis set group =>   2
Atom  13Cl   basis set group =>   4
Atom  14C    basis set group =>   2
Atom  15C    basis set group =>   2
Atom  16C    basis set group =>   2
Atom  17C    basis set group =>   2
Atom  18Cl   basis set group =>   4
Atom  19H    basis set group =>   5
Atom  20H    basis set group =>   5
Atom  21H    basis set group =>   5
Atom  22H    basis set group =>   5
Atom  23H    basis set group =>   5
Atom  24H    basis set group =>   5
Atom  25H    basis set group =>   5
Atom  26H    basis set group =>   5
Atom  27H    basis set group =>   5
Atom  28H    basis set group =>   5
Atom  29H    basis set group =>   5
------------------------------------------------------------------------------
                             ORCA STARTUP CALCULATIONS
                           -- RI-GTO INTEGRALS CHOSEN --
------------------------------------------------------------------------------
------------------------------------------------------------------------------
                   ___                                                        
                  /   \      - P O W E R E D   B Y -                         
                 /     \                                                     
                 |  |  |   _    _      __       _____    __    __             
                 |  |  |  | |  | |    /  \     |  _  \  |  |  /  |          
                  \  \/   | |  | |   /    \    | | | |  |  | /  /          
                 / \  \   | |__| |  /  /\  \   | |_| |  |  |/  /          
                |  |  |   |  __  | /  /__\  \  |    /   |      \           
                |  |  |   | |  | | |   __   |  |    \   |  |\   \          
                \     /   | |  | | |  |  |  |  | |\  \  |  | \   \       
                 \___/    |_|  |_| |__|  |__|  |_| \__\ |__|  \__/        
                                                                              
                      - O R C A' S   B I G   F R I E N D -                    
                                      &                                       
                       - I N T E G R A L  F E E D E R -                       
                                                                              
 v1 FN, 2020, v2 2021, v3 2022-2024                                           
------------------------------------------------------------------------------


----------------------
SHARK INTEGRAL PACKAGE
----------------------

Number of atoms                             ...     30
Number of basis functions                   ...    667
Number of shells                            ...    257
Maximum angular momentum                    ...      3
Integral batch strategy                     ... SHARK/LIBINT Hybrid
RI-J (if used) integral strategy            ... SPLIT-RIJ (Revised 2003 algorithm where possible)
Printlevel                                  ...      1
Contraction scheme used                     ... SEGMENTED contraction
Prescreening option                         ... SCHWARTZ
   Thresh                                   ... 2.500e-11
   Tcut                                     ... 2.500e-12
   Tpresel                                  ... 2.500e-12 
Coulomb Range Separation                    ... NOT USED
Exchange Range Separation                   ... NOT USED
Multipole approximations                    ... NOT USED
Finite Nucleus Model                        ... NOT USED
CABS basis                                  ... NOT available
Auxiliary Coulomb fitting basis             ... AVAILABLE
   # of basis functions in Aux-J            ...   1056
   # of shells in Aux-J                     ...    344
   Maximum angular momentum in Aux-J        ...      4
Auxiliary J/K fitting basis                 ... NOT available
Auxiliary Correlation fitting basis         ... NOT available
Auxiliary 'external' fitting basis          ... NOT available

Checking pre-screening integrals            ... done (  0.0 sec) Dimension = 257
Check shell pair data                       ... done (  0.0 sec)
Shell pair information
Shell pair cut-off parameter TPreSel        ...   2.5e-12
Total number of shell pairs                 ...     33153
Shell pairs after pre-screening             ...     24614
Total number of primitive shell pairs       ...    106509
Primitive shell pairs kept                  ...     52481
          la=0 lb=0:   5837 shell pairs
          la=1 lb=0:   7033 shell pairs
          la=1 lb=1:   2149 shell pairs
          la=2 lb=0:   3538 shell pairs
          la=2 lb=1:   2159 shell pairs
          la=2 lb=2:    569 shell pairs
          la=3 lb=0:   1655 shell pairs
          la=3 lb=1:   1024 shell pairs
          la=3 lb=2:    517 shell pairs
          la=3 lb=3:    133 shell pairs

Calculating one electron integrals          ... done (  0.1 sec)
Calculating RI/J V-Matrix + Cholesky decomp.... done (  0.0 sec)
Calculating Nuclear repulsion               ... done (  0.0 sec) ENN=   1642.820556829939 Eh

Diagonalization of the overlap matrix:
Smallest eigenvalue                        ... 6.746e-06
Time for diagonalization                   ...    0.032 sec
Threshold for overlap eigenvalues          ... 1.000e-07
Number of eigenvalues below threshold      ... 0
Time for construction of square roots      ...    0.023 sec
Total time needed                          ...    0.057 sec

-------------------
DFT GRID GENERATION
-------------------

General Integration Accuracy     IntAcc      ... 4.388
Radial Grid Type                 RadialGrid  ... OptM3 with GC (2021)
Angular Grid (max. ang.)         AngularGrid ... 4 (Lebedev-302)
Angular grid pruning method      GridPruning ... 4 (adaptive)
Weight generation scheme         WeightScheme... mBecke (2022)
Basis function cutoff            BFCut       ... 1.0000e-11
Integration weight cutoff        WCut        ... 1.0000e-14
Partially contracted basis set               ... off
Rotationally invariant grid construction     ... off
Angular grids for H and He will be reduced by one unit

Total number of grid points                  ...   151405
Total number of batches                      ...     2380
Average number of points per batch           ...       63
Average number of grid points per atom       ...     5047

--------------------
COSX GRID GENERATION
--------------------

GRIDX 1
-------
General Integration Accuracy     IntAcc      ... 3.816
Radial Grid Type                 RadialGrid  ... OptM3 with GC (2021)
Angular Grid (max. ang.)         AngularGrid ... 1 (Lebedev-50)
Angular grid pruning method      GridPruning ... 4 (adaptive)
Weight generation scheme         WeightScheme... mBecke (2022)
Basis function cutoff            BFCut       ... 1.0000e-11
Integration weight cutoff        WCut        ... 1.0000e-14
Partially contracted basis set               ... on
Rotationally invariant grid construction     ... off
Angular grids for H and He will be reduced by one unit

Total number of grid points                  ...    21254
Total number of batches                      ...      181
Average number of points per batch           ...      117
Average number of grid points per atom       ...      708
UseSFitting                                  ... on

GRIDX 2
-------
General Integration Accuracy     IntAcc      ... 4.020
Radial Grid Type                 RadialGrid  ... OptM3 with GC (2021)
Angular Grid (max. ang.)         AngularGrid ... 2 (Lebedev-110)
Angular grid pruning method      GridPruning ... 4 (adaptive)
Weight generation scheme         WeightScheme... mBecke (2022)
Basis function cutoff            BFCut       ... 1.0000e-11
Integration weight cutoff        WCut        ... 1.0000e-14
Partially contracted basis set               ... on
Rotationally invariant grid construction     ... off
Angular grids for H and He will be reduced by one unit

Total number of grid points                  ...    42048
Total number of batches                      ...      341
Average number of points per batch           ...      123
Average number of grid points per atom       ...     1402
UseSFitting                                  ... on

GRIDX 3
-------
General Integration Accuracy     IntAcc      ... 4.338
Radial Grid Type                 RadialGrid  ... OptM3 with GC (2021)
Angular Grid (max. ang.)         AngularGrid ... 3 (Lebedev-194)
Angular grid pruning method      GridPruning ... 4 (adaptive)
Weight generation scheme         WeightScheme... mBecke (2022)
Basis function cutoff            BFCut       ... 1.0000e-11
Integration weight cutoff        WCut        ... 1.0000e-14
Partially contracted basis set               ... on
Rotationally invariant grid construction     ... off
Angular grids for H and He will be reduced by one unit

Total number of grid points                  ...    93385
Total number of batches                      ...      745
Average number of points per batch           ...      125
Average number of grid points per atom       ...     3113
UseSFitting                                  ... on
Initializing property integral containers    ... done (  0.0 sec)

SHARK setup successfully completed in   3.6 seconds

Maximum memory used throughout the entire STARTUP-calculation: 114.9 MB
-------------------------------------------------------------------------------
                                 ORCA GUESS
                   Start orbitals & Density for SCF / CASSCF
-------------------------------------------------------------------------------

------------
SCF SETTINGS
------------
Hamiltonian:
 Density Functional     Method          .... DFT(GTOs)
 Exchange Functional    Exchange        .... B88
   X-Alpha parameter    XAlpha          ....  0.666667
   Becke's b parameter  XBeta           ....  0.004200
 Correlation Functional Correlation     .... LYP
 LDA part of GGA corr.  LDAOpt          .... VWN-5
 Gradients option       PostSCFGGA      .... off
 Hybrid DFT is turned on
   Fraction HF Exchange ScalHFX         ....  0.200000
   Scaling of DF-GGA-X  ScalDFX         ....  0.720000
   Scaling of DF-GGA-C  ScalDFC         ....  0.810000
   Scaling of DF-LDA-C  ScalLDAC        ....  1.000000
   Perturbative correction              ....  0.000000
   NL short-range parameter             ....  4.800000
 RI-approximation to the Coulomb term is turned on
   Number of AuxJ basis functions       .... 1056
   RIJ-COSX (HFX calculated with COS-X)).... on


General Settings:
 Integral files         IntName         .... Diclofenac\Diclofenac_B3LYP_def2-TZVP\Diclofenac_B3LYP_def2-TZVP.orcainp
 Hartree-Fock type      HFTyp           .... RHF
 Total Charge           Charge          ....    0
 Multiplicity           Mult            ....    1
 Number of Electrons    NEL             ....  152
 Basis Dimension        Dim             ....  667
 Nuclear Repulsion      ENuc            ....   1642.8205568299 Eh

Convergence Acceleration:
 AO-DIIS                CNVDIIS         .... on
   Start iteration      DIISMaxIt       ....    12
   Startup error        DIISStart       ....  0.200000
   # of expansion vecs  DIISMaxEq       ....     5
   Bias factor          DIISBfac        ....   1.050
   Max. coefficient     DIISMaxC        ....  10.000
 MO-DIIS                CNVKDIIS        .... off
 Trust-Rad. Augm. Hess. CNVTRAH         .... auto
   Auto Start mean grad. ratio tolernc. ....  1.125000
   Auto Start start iteration           ....    50
   Auto Start num. interpolation iter.  ....    10
   Max. Number of Micro iterations      ....    24
   Max. Number of Macro iterations      .... Maxiter - #DIIS iter
   Number of Davidson start vectors     ....     2
   Converg. threshold    (grad. norm)   ....   1.000e-05
   Grad. Scal. Fac. for Micro threshold ....   0.100
   Minimum threshold for Micro iter.    ....   1.000e-02
   NR start threshold (gradient norm)   ....   1.000e-04
   Initial trust radius                 ....   0.400
   Minimum AH scaling param. (alpha)    ....   1.000
   Maximum AH scaling param. (alpha)    .... 1000.000
   Quad. conv. algorithm                .... NR
   White noise on init. David. guess    .... on
   Maximum white noise                  ....   0.010
   Pseudo random numbers                .... off
   Inactive MOs                         .... canonical
   Orbital update algorithm             .... Taylor
   Preconditioner                       .... Diag
   Full preconditioner red. dimension   ....   250
 SOSCF                  CNVSOSCF        .... on
   Start iteration      SOSCFMaxIt      ....   150
   Startup grad/error   SOSCFStart      ....  0.003300
   Hessian update       SOSCFHessUp     .... L-BFGS
 Level Shifting         CNVShift        .... on
   Level shift para.    LevelShift      ....    0.2500
   Turn off err/grad.   ShiftErr        ....    0.0010
 Zerner damping         CNVZerner       .... off
 Static damping         CNVDamp         .... on
   Fraction old density DampFac         ....    0.7000
   Max. Damping (<1)    DampMax         ....    0.9800
   Min. Damping (>=0)   DampMin         ....    0.0000
   Turn off err/grad.   DampErr         ....    0.1000

SCF Procedure:
 Maximum # iterations   MaxIter         ....   125
 SCF integral mode      SCFMode         .... Direct
   Integral package                     .... SHARK and LIBINT hybrid scheme
 Reset frequency        DirectResetFreq ....    20
 Integral Threshold     Thresh          ....  2.500e-11 Eh
 Primitive CutOff       TCut            ....  2.500e-12 Eh

Convergence Tolerance:
 Convergence Check Mode ConvCheckMode   .... Total+1el-Energy
 Convergence forced     ConvForced      .... 0
 Energy Change          TolE            ....  1.000e-08 Eh
 1-El. energy change                    ....  1.000e-05 Eh
 Orbital Gradient       TolG            ....  1.000e-05
 Orbital Rotation angle TolX            ....  1.000e-05
 DIIS Error             TolErr          ....  5.000e-07

------------------------------
INITIAL GUESS: MODEL POTENTIAL
------------------------------
Loading Hartree-Fock densities                     ... done
Calculating cut-offs                               ... done
Initializing the effective Hamiltonian             ... done
Setting up the integral package (SHARK)            ... done
Starting the Coulomb interaction                   ... done (   0.8 sec)
Making the grid                                    ... done (   0.3 sec)
Mapping shells                                     ... done
Starting the XC term evaluation                    ... done (   1.0 sec)
  promolecular density results
     # of electrons  =    151.993253200
     EX              =   -153.301574745
     EC              =     -5.463804706
     EX+EC           =   -158.765379451
Transforming the Hamiltonian                       ... done (   0.0 sec)
Diagonalizing the Hamiltonian                      ... done (   0.0 sec)
Back transforming the eigenvectors                 ... done (   0.0 sec)
Now organizing SCF variables                       ... done
                      ------------------
                      INITIAL GUESS DONE (   2.2 sec)
                      ------------------
             **** ENERGY FILE WAS UPDATED (Diclofenac\Diclofenac_B3LYP_def2-TZVP\Diclofenac_B3LYP_def2-TZVP.orcainp.en.tmp) ****
Finished Guess after   2.4 sec
Maximum memory used throughout the entire GUESS-calculation: 85.5 MB

-------------------------------------------------------------------------------------------
                                      ORCA LEAN-SCF
                              memory conserving SCF solver
-------------------------------------------------------------------------------------------

--------------------
CPCM SOLVATION MODEL
--------------------
CPCM parameters:
  Epsilon                                         ...      80.1510
  Refrac                                          ...       1.3328
  Rsolv                                           ...       1.3000
  Surface type                                    ... GAUSSIAN VDW
  Discretization scheme                           ... Constant charge density
    Threshold for H atoms                         ...       5.0000 (charges/Ang^2)
    Threshold for non-H atoms                     ...       5.0000 (charges/Ang^2)
  Epsilon function type                           ...         CPCM
Solvent:                                          ... WATER
Radii:
  Scheme                                          ... Element-dependent radii
  Radius for O  used is    3.4469 Bohr (=   1.8240 Ang.)
  Radius for C  used is    3.8550 Bohr (=   2.0400 Ang.)
  Radius for N  used is    3.5149 Bohr (=   1.8600 Ang.)
  Radius for Cl used is    3.9684 Bohr (=   2.1000 Ang.)
  Radius for H  used is    2.4944 Bohr (=   1.3200 Ang.)
Calculating surface                               ...        done! (  0.0s)
Cavity surface points                             ...         2848
Cavity Volume                                     ...    2155.8247
Cavity Surface-area                               ...    1091.7714
Calculating surface distance matrix               ...        done! (  0.0s)
Performing Cholesky decomposition & store         ...        done! (  0.2s)
Overall time for CPCM initialization              ...                 0.2s

----------------------------------------D-I-I-S--------------------------------------------
Iteration    Energy (Eh)           Delta-E    RMSDP     MaxDP     DIISErr   Damp  Time(sec)
-------------------------------------------------------------------------------------------
               ***  Starting incremental Fock matrix formation  ***
    1    -1665.0419349502365094     0.00e+00  1.07e-03  1.01e-01  2.91e-01  0.700  31.5
    2    -1665.2598750587615086    -2.18e-01  8.73e-04  9.41e-02  1.09e-01  0.700  17.2
                               ***Turning on AO-DIIS***
    3    -1665.3452774569375379    -8.54e-02  4.41e-04  2.44e-02  3.66e-02  0.700  16.9
    4    -1665.3965261756040945    -5.12e-02  8.90e-04  4.58e-02  1.79e-02  0.000  16.0
    5    -1665.5091463712094537    -1.13e-01  2.28e-04  1.99e-02  7.01e-03  0.000  16.5
                              *** Initializing SOSCF ***
---------------------------------------S-O-S-C-F--------------------------------------
Iteration    Energy (Eh)           Delta-E    RMSDP     MaxDP     MaxGrad    Time(sec)
--------------------------------------------------------------------------------------
    6    -1665.5098570390262012    -7.11e-04  8.47e-05  4.87e-03  1.92e-03    15.0
               *** Restarting incremental Fock matrix formation ***
    7    -1665.5098623937312823    -5.35e-06  8.24e-05  5.21e-03  3.54e-04    31.5
    8    -1665.5098560422118226     6.35e-06  1.60e-05  1.36e-03  7.55e-04    22.5
    9    -1665.5098708589796388    -1.48e-05  1.30e-05  6.91e-04  7.52e-05    20.4
   10    -1665.5098707015088166     1.57e-07  3.33e-06  1.46e-04  7.91e-05    19.0
   11    -1665.5098711752496001    -4.74e-07  2.68e-06  2.08e-04  1.79e-05    16.8
   12    -1665.5098711685261605     6.72e-09  1.62e-06  1.11e-04  2.44e-05    15.8
                 **** Energy Check signals convergence ****

               *****************************************************
               *                     SUCCESS                       *
               *           SCF CONVERGED AFTER  12 CYCLES          *
               *****************************************************

Recomputing exchange energy using gridx3       ... done (   51.433 sec)
Old exchange energy                            :    -30.932726784 Eh
New exchange energy                            :    -30.932715958 Eh
Exchange energy change after final integration :      0.000010825 Eh
Total energy after final integration           :  -1665.509860343 Eh
             **** ENERGY FILE WAS UPDATED (Diclofenac\Diclofenac_B3LYP_def2-TZVP\Diclofenac_B3LYP_def2-TZVP.orcainp.en.tmp) ****

----------------
TOTAL SCF ENERGY
----------------

Total Energy       :      -1665.50986034310063 Eh          -45320.82737 eV

Components:
Nuclear Repulsion  :       1642.82055682993882 Eh           44703.42003 eV
Electronic Energy  :      -3308.31222105633879 Eh          -90023.75225 eV
One Electron Energy:      -5550.48683692457598 Eh         -151036.42538 eV
Two Electron Energy:       2242.17461586823720 Eh           61012.67312 eV
CPCM Dielectric    :         -0.01820694212627 Eh              -0.49544 eV

Virial components:
Potential Energy   :      -3326.16390275240155 Eh          -90509.52121 eV
Kinetic Energy     :       1660.65404240930093 Eh           45188.69384 eV
Virial Ratio       :          2.00292403945060

DFT components:
N(Alpha)           :       75.999990864188 electrons
N(Beta)            :       75.999990864188 electrons
N(Total)           :      151.999981728377 electrons
E(X)               :     -122.917379510622 Eh       
E(C)               :       -6.422567006622 Eh       
E(XC)              :     -129.339946517244 Eh       

CPCM Solvation Model Properties:
Surface-charge          :         -0.03048911539036
Corrected charge        :          0.00000000000000
Outlying charge corr.   :          0.00005199129554 Eh               0.00141 eV
Free-energy (cav+disp)  :  This term is not implemented in the current solvation scheme

---------------
SCF CONVERGENCE
---------------

  Last Energy change         ...   -6.7234e-09  Tolerance :   1.0000e-08
  Last MAX-Density change    ...    1.1100e-04  Tolerance :   1.0000e-07
  Last RMS-Density change    ...    1.6233e-06  Tolerance :   5.0000e-09
  Last DIIS Error            ...    1.9244e-03  Tolerance :   5.0000e-07
  Last Orbital Gradient      ...    2.4370e-05  Tolerance :   1.0000e-05
  Last Orbital Rotation      ...    3.9460e-05  Tolerance :   1.0000e-05


----------------
ORBITAL ENERGIES
----------------

  NO   OCC          E(Eh)            E(eV) 
   0   2.0000    -101.535531     -2762.9223 
   1   2.0000    -101.531711     -2762.8183 
   2   2.0000     -19.187786      -522.1262 
   3   2.0000     -19.128762      -520.5201 
   4   2.0000     -14.341714      -390.2579 
   5   2.0000     -10.320823      -280.8439 
   6   2.0000     -10.248154      -278.8665 
   7   2.0000     -10.244741      -278.7736 
   8   2.0000     -10.243476      -278.7391 
   9   2.0000     -10.226728      -278.2834 
  10   2.0000     -10.195546      -277.4349 
  11   2.0000     -10.194351      -277.4024 
  12   2.0000     -10.190006      -277.2842 
  13   2.0000     -10.189003      -277.2569 
  14   2.0000     -10.182070      -277.0682 
  15   2.0000     -10.177586      -276.9462 
  16   2.0000     -10.174636      -276.8659 
  17   2.0000     -10.174039      -276.8497 
  18   2.0000     -10.168519      -276.6995 
  19   2.0000      -9.467754      -257.6307 
  20   2.0000      -9.463953      -257.5272 
  21   2.0000      -7.229156      -196.7153 
  22   2.0000      -7.225422      -196.6137 
  23   2.0000      -7.220891      -196.4904 
  24   2.0000      -7.220558      -196.4814 
  25   2.0000      -7.217134      -196.3882 
  26   2.0000      -7.216626      -196.3744 
  27   2.0000      -1.122786       -30.5526 
  28   2.0000      -1.024381       -27.8748 
  29   2.0000      -0.955130       -25.9904 
  30   2.0000      -0.896817       -24.4036 
  31   2.0000      -0.881591       -23.9893 
  32   2.0000      -0.852387       -23.1946 
  33   2.0000      -0.827440       -22.5158 
  34   2.0000      -0.795990       -21.6600 
  35   2.0000      -0.762951       -20.7610 
  36   2.0000      -0.730904       -19.8889 
  37   2.0000      -0.730256       -19.8713 
  38   2.0000      -0.715282       -19.4638 
  39   2.0000      -0.635268       -17.2865 
  40   2.0000      -0.625413       -17.0184 
  41   2.0000      -0.614935       -16.7332 
  42   2.0000      -0.599415       -16.3109 
  43   2.0000      -0.585305       -15.9270 
  44   2.0000      -0.543809       -14.7978 
  45   2.0000      -0.536549       -14.6002 
  46   2.0000      -0.509756       -13.8712 
  47   2.0000      -0.497922       -13.5491 
  48   2.0000      -0.496987       -13.5237 
  49   2.0000      -0.487812       -13.2740 
  50   2.0000      -0.475836       -12.9482 
  51   2.0000      -0.466287       -12.6883 
  52   2.0000      -0.455923       -12.4063 
  53   2.0000      -0.450093       -12.2476 
  54   2.0000      -0.438365       -11.9285 
  55   2.0000      -0.437568       -11.9068 
  56   2.0000      -0.420019       -11.4293 
  57   2.0000      -0.417743       -11.3674 
  58   2.0000      -0.407721       -11.0946 
  59   2.0000      -0.394205       -10.7269 
  60   2.0000      -0.391227       -10.6458 
  61   2.0000      -0.381602       -10.3839 
  62   2.0000      -0.374371       -10.1872 
  63   2.0000      -0.370530       -10.0826 
  64   2.0000      -0.354372        -9.6429 
  65   2.0000      -0.352256        -9.5854 
  66   2.0000      -0.339682        -9.2432 
  67   2.0000      -0.327900        -8.9226 
  68   2.0000      -0.327378        -8.9084 
  69   2.0000      -0.324728        -8.8363 
  70   2.0000      -0.317552        -8.6410 
  71   2.0000      -0.299643        -8.1537 
  72   2.0000      -0.263173        -7.1613 
  73   2.0000      -0.254075        -6.9137 
  74   2.0000      -0.248226        -6.7546 
  75   2.0000      -0.209899        -5.7116 
  76   0.0000      -0.034037        -0.9262 
  77   0.0000      -0.033352        -0.9076 
  78   0.0000      -0.022461        -0.6112 
  79   0.0000      -0.011271        -0.3067 
  80   0.0000       0.003379         0.0919 
  81   0.0000       0.006824         0.1857 
  82   0.0000       0.040220         1.0944 
  83   0.0000       0.050120         1.3638 
  84   0.0000       0.060265         1.6399 
  85   0.0000       0.069579         1.8933 
  86   0.0000       0.076263         2.0752 
*Only the first 10 virtual orbitals were printed.

                    ********************************
                    * MULLIKEN POPULATION ANALYSIS *
                    ********************************

-----------------------
MULLIKEN ATOMIC CHARGES
-----------------------
   0 O :   -0.401290
   1 C :    0.324650
   2 O :   -0.394086
   3 C :   -0.191109
   4 C :    0.016489
   5 C :   -0.187783
   6 C :   -0.166838
   7 C :   -0.130960
   8 C :   -0.262582
   9 C :    0.210482
  10 N :   -0.300209
  11 C :    0.228945
  12 C :   -0.023833
  13 Cl:   -0.112810
  14 C :   -0.155955
  15 C :   -0.176927
  16 C :   -0.159342
  17 C :    0.045563
  18 Cl:   -0.114766
  19 H :    0.365885
  20 H :    0.153347
  21 H :    0.138347
  22 H :    0.138448
  23 H :    0.138393
  24 H :    0.143188
  25 H :    0.155068
  26 H :    0.265474
  27 H :    0.150971
  28 H :    0.151078
  29 H :    0.152162
Sum of atomic charges:    0.0000000

--------------------------------
MULLIKEN REDUCED ORBITAL CHARGES
--------------------------------
  0 O s       :     3.780902  s :     3.780902
      pz      :     1.568590  p :     4.589357
      px      :     1.537691
      py      :     1.483075
      dz2     :     0.003043  d :     0.029387
      dxz     :     0.004856
      dyz     :     0.006486
      dx2y2   :     0.007760
      dxy     :     0.007242
      f0      :     0.000181  f :     0.001645
      f+1     :     0.000307
      f-1     :     0.000157
      f+2     :     0.000322
      f-2     :     0.000258
      f+3     :     0.000199
      f-3     :     0.000221

  1 C s       :     3.107168  s :     3.107168
      pz      :     0.795519  p :     2.293232
      px      :     0.803938
      py      :     0.693775
      dz2     :     0.042149  d :     0.250084
      dxz     :     0.027198
      dyz     :     0.058546
      dx2y2   :     0.063136
      dxy     :     0.059055
      f0      :     0.001775  f :     0.024867
      f+1     :     0.001486
      f-1     :     0.004832
      f+2     :     0.003043
      f-2     :     0.004550
      f+3     :     0.003264
      f-3     :     0.005916

  2 O s       :     3.805847  s :     3.805847
      pz      :     1.532053  p :     4.557938
      px      :     1.544040
      py      :     1.481845
      dz2     :     0.004423  d :     0.028530
      dxz     :     0.002047
      dyz     :     0.007710
      dx2y2   :     0.006634
      dxy     :     0.007717
      f0      :     0.000117  f :     0.001771
      f+1     :     0.000058
      f-1     :     0.000394
      f+2     :     0.000259
      f-2     :     0.000239
      f+3     :     0.000318
      f-3     :     0.000387

  3 C s       :     3.209312  s :     3.209312
      pz      :     0.951479  p :     2.900341
      px      :     0.895925
      py      :     1.052937
      dz2     :     0.011399  d :     0.075999
      dxz     :     0.025281
      dyz     :     0.009554
      dx2y2   :     0.018026
      dxy     :     0.011740
      f0      :     0.000399  f :     0.005457
      f+1     :     0.001255
      f-1     :     0.000364
      f+2     :     0.000747
      f-2     :     0.001048
      f+3     :     0.000843
      f-3     :     0.000801

  4 C s       :     3.241106  s :     3.241106
      pz      :     0.955122  p :     2.610547
      px      :     0.834373
      py      :     0.821052
      dz2     :     0.007857  d :     0.122231
      dxz     :     0.022204
      dyz     :     0.021388
      dx2y2   :     0.041001
      dxy     :     0.029781
      f0      :     0.001407  f :     0.009628
      f+1     :     0.000788
      f-1     :     0.000698
      f+2     :     0.001077
      f-2     :     0.001050
      f+3     :     0.002983
      f-3     :     0.001625

  5 C s       :     3.252543  s :     3.252543
      pz      :     0.975901  p :     2.842314
      px      :     0.915833
      py      :     0.950580
      dz2     :     0.005108  d :     0.085535
      dxz     :     0.024742
      dyz     :     0.005381
      dx2y2   :     0.030907
      dxy     :     0.019397
      f0      :     0.001374  f :     0.007391
      f+1     :     0.000536
      f-1     :     0.000581
      f+2     :     0.000343
      f-2     :     0.001144
      f+3     :     0.002023
      f-3     :     0.001390

  6 C s       :     3.223841  s :     3.223841
      pz      :     0.987413  p :     2.854117
      px      :     0.943109
      py      :     0.923595
      dz2     :     0.005322  d :     0.081602
      dxz     :     0.011096
      dyz     :     0.015803
      dx2y2   :     0.020750
      dxy     :     0.028632
      f0      :     0.001335  f :     0.007278
      f+1     :     0.000608
      f-1     :     0.000633
      f+2     :     0.001015
      f-2     :     0.000325
      f+3     :     0.002069
      f-3     :     0.001293

  7 C s       :     3.216544  s :     3.216544
      pz      :     0.962899  p :     2.824565
      px      :     0.948757
      py      :     0.912908
      dz2     :     0.004790  d :     0.082545
      dxz     :     0.008877
      dyz     :     0.019838
      dx2y2   :     0.024016
      dxy     :     0.025023
      f0      :     0.001365  f :     0.007306
      f+1     :     0.000577
      f-1     :     0.000593
      f+2     :     0.000744
      f-2     :     0.000662
      f+3     :     0.002052
      f-3     :     0.001313

  8 C s       :     3.302007  s :     3.302007
      pz      :     0.995112  p :     2.873261
      px      :     0.888145
      py      :     0.990003
      dz2     :     0.006841  d :     0.079887
      dxz     :     0.021457
      dyz     :     0.006141
      dx2y2   :     0.028881
      dxy     :     0.016567
      f0      :     0.001422  f :     0.007428
      f+1     :     0.000621
      f-1     :     0.000609
      f+2     :     0.000386
      f-2     :     0.001038
      f+3     :     0.001945
      f-3     :     0.001408

  9 C s       :     3.091783  s :     3.091783
      pz      :     0.928991  p :     2.529677
      px      :     0.785421
      py      :     0.815265
      dz2     :     0.006911  d :     0.155304
      dxz     :     0.035222
      dyz     :     0.027251
      dx2y2   :     0.041798
      dxy     :     0.044121
      f0      :     0.001807  f :     0.012754
      f+1     :     0.000992
      f-1     :     0.000986
      f+2     :     0.001136
      f-2     :     0.001811
      f+3     :     0.003777
      f-3     :     0.002245

 10 N s       :     3.452624  s :     3.452624
      pz      :     1.557569  p :     3.785755
      px      :     1.118791
      py      :     1.109395
      dz2     :     0.004976  d :     0.057926
      dxz     :     0.009119
      dyz     :     0.011276
      dx2y2   :     0.016272
      dxy     :     0.016284
      f0      :     0.000656  f :     0.003904
      f+1     :     0.000307
      f-1     :     0.000576
      f+2     :     0.000471
      f-2     :     0.000479
      f+3     :     0.000721
      f-3     :     0.000695

 11 C s       :     3.071419  s :     3.071419
      pz      :     0.846674  p :     2.518219
      px      :     0.971735
      py      :     0.699810
      dz2     :     0.030034  d :     0.168580
      dxz     :     0.021525
      dyz     :     0.051772
      dx2y2   :     0.030785
      dxy     :     0.034464
      f0      :     0.001522  f :     0.012837
      f+1     :     0.001429
      f-1     :     0.002093
      f+2     :     0.002715
      f-2     :     0.001263
      f+3     :     0.001976
      f-3     :     0.001839

 12 C s       :     3.256079  s :     3.256079
      pz      :     0.862496  p :     2.610588
      px      :     0.928691
      py      :     0.819402
      dz2     :     0.031078  d :     0.146690
      dxz     :     0.019098
      dyz     :     0.037647
      dx2y2   :     0.026406
      dxy     :     0.032461
      f0      :     0.001415  f :     0.010476
      f+1     :     0.001391
      f-1     :     0.001259
      f+2     :     0.002369
      f-2     :     0.001425
      f+3     :     0.001696
      f-3     :     0.000921

 13 Cls       :     5.888358  s :     5.888358
      pz      :     3.620461  p :    11.151769
      px      :     3.737934
      py      :     3.793374
      dz2     :     0.013252  d :     0.066857
      dxz     :     0.015342
      dyz     :     0.016463
      dx2y2   :     0.008916
      dxy     :     0.012883
      f0      :     0.000593  f :     0.005827
      f+1     :     0.000912
      f-1     :     0.000960
      f+2     :     0.000812
      f-2     :     0.001621
      f+3     :     0.000396
      f-3     :     0.000533

 14 C s       :     3.243851  s :     3.243851
      pz      :     0.957740  p :     2.820551
      px      :     0.959608
      py      :     0.903203
      dz2     :     0.012590  d :     0.083975
      dxz     :     0.010234
      dyz     :     0.019318
      dx2y2   :     0.020040
      dxy     :     0.021793
      f0      :     0.000589  f :     0.007578
      f+1     :     0.001063
      f-1     :     0.000998
      f+2     :     0.001531
      f-2     :     0.000844
      f+3     :     0.001649
      f-3     :     0.000904

 15 C s       :     3.241884  s :     3.241884
      pz      :     0.936716  p :     2.846302
      px      :     0.937276
      py      :     0.972310
      dz2     :     0.021789  d :     0.081426
      dxz     :     0.012431
      dyz     :     0.013698
      dx2y2   :     0.021120
      dxy     :     0.012388
      f0      :     0.000723  f :     0.007314
      f+1     :     0.001232
      f-1     :     0.001022
      f+2     :     0.001606
      f-2     :     0.000908
      f+3     :     0.000746
      f-3     :     0.001077

 16 C s       :     3.244258  s :     3.244258
      pz      :     0.962726  p :     2.823330
      px      :     0.960069
      py      :     0.900535
      dz2     :     0.014448  d :     0.084216
      dxz     :     0.009709
      dyz     :     0.021967
      dx2y2   :     0.016038
      dxy     :     0.022053
      f0      :     0.001096  f :     0.007538
      f+1     :     0.000830
      f-1     :     0.000753
      f+2     :     0.001562
      f-2     :     0.001056
      f+3     :     0.001384
      f-3     :     0.000857

 17 C s       :     3.213826  s :     3.213826
      pz      :     0.854630  p :     2.584300
      px      :     0.919861
      py      :     0.809809
      dz2     :     0.028922  d :     0.145766
      dxz     :     0.018722
      dyz     :     0.033906
      dx2y2   :     0.029648
      dxy     :     0.034568
      f0      :     0.001055  f :     0.010546
      f+1     :     0.001627
      f-1     :     0.001320
      f+2     :     0.002160
      f-2     :     0.001385
      f+3     :     0.001858
      f-3     :     0.001140

 18 Cls       :     5.888570  s :     5.888570
      pz      :     3.596795  p :    11.153725
      px      :     3.682294
      py      :     3.874636
      dz2     :     0.017563  d :     0.066675
      dxz     :     0.019221
      dyz     :     0.010788
      dx2y2   :     0.008241
      dxy     :     0.010863
      f0      :     0.000702  f :     0.005796
      f+1     :     0.001401
      f-1     :     0.000652
      f+2     :     0.000960
      f-2     :     0.001343
      f+3     :     0.000282
      f-3     :     0.000456

 19 H s       :     0.591592  s :     0.591592
      pz      :     0.016467  p :     0.042523
      px      :     0.016619
      py      :     0.009436

 20 H s       :     0.824584  s :     0.824584
      pz      :     0.010789  p :     0.022069
      px      :     0.005503
      py      :     0.005777

 21 H s       :     0.839257  s :     0.839257
      pz      :     0.005042  p :     0.022395
      px      :     0.004364
      py      :     0.012989

 22 H s       :     0.839324  s :     0.839324
      pz      :     0.004855  p :     0.022227
      px      :     0.003544
      py      :     0.013828

 23 H s       :     0.839482  s :     0.839482
      pz      :     0.004858  p :     0.022125
      px      :     0.010345
      py      :     0.006922

 24 H s       :     0.834724  s :     0.834724
      pz      :     0.004684  p :     0.022088
      px      :     0.012099
      py      :     0.005305

 25 H s       :     0.822593  s :     0.822593
      pz      :     0.005048  p :     0.022339
      px      :     0.003680
      py      :     0.013611

 26 H s       :     0.687811  s :     0.687811
      pz      :     0.015154  p :     0.046714
      px      :     0.019765
      py      :     0.011795

 27 H s       :     0.826765  s :     0.826765
      pz      :     0.009636  p :     0.022264
      px      :     0.007360
      py      :     0.005269

 28 H s       :     0.826599  s :     0.826599
      pz      :     0.004407  p :     0.022323
      px      :     0.004110
      py      :     0.013807

 29 H s       :     0.825596  s :     0.825596
      pz      :     0.006729  p :     0.022242
      px      :     0.008429
      py      :     0.007084



                     *******************************
                     * LOEWDIN POPULATION ANALYSIS *
                     *******************************

----------------------
LOEWDIN ATOMIC CHARGES
----------------------
   0 O :    0.100301
   1 C :   -0.463835
   2 O :    0.039413
   3 C :   -0.171816
   4 C :   -0.114852
   5 C :   -0.113655
   6 C :   -0.163872
   7 C :   -0.149292
   8 C :   -0.129983
   9 C :   -0.180587
  10 N :    0.156072
  11 C :   -0.201223
  12 C :   -0.404502
  13 Cl:    0.418652
  14 C :   -0.148464
  15 C :   -0.148211
  16 C :   -0.147209
  17 C :   -0.404603
  18 Cl:    0.401438
  19 H :    0.226250
  20 H :    0.170783
  21 H :    0.168432
  22 H :    0.155412
  23 H :    0.149596
  24 H :    0.150407
  25 H :    0.154612
  26 H :    0.182811
  27 H :    0.155440
  28 H :    0.155839
  29 H :    0.156647

-------------------------------
LOEWDIN REDUCED ORBITAL CHARGES
-------------------------------
  0 O s       :     3.338649  s :     3.338649
      pz      :     1.494163  p :     4.487857
      px      :     1.459015
      py      :     1.534679
      dz2     :     0.007474  d :     0.068159
      dxz     :     0.013535
      dyz     :     0.013005
      dx2y2   :     0.018800
      dxy     :     0.015345
      f0      :     0.000467  f :     0.005033
      f+1     :     0.000391
      f-1     :     0.000709
      f+2     :     0.000700
      f-2     :     0.000798
      f+3     :     0.000881
      f-3     :     0.001087

  1 C s       :     2.768527  s :     2.768527
      pz      :     0.861256  p :     2.624611
      px      :     0.847804
      py      :     0.915552
      dz2     :     0.145430  d :     0.917969
      dxz     :     0.094952
      dyz     :     0.218859
      dx2y2   :     0.236943
      dxy     :     0.221785
      f0      :     0.011350  f :     0.152728
      f+1     :     0.006232
      f-1     :     0.032446
      f+2     :     0.013999
      f-2     :     0.029511
      f+3     :     0.020168
      f-3     :     0.039022

  2 O s       :     3.414695  s :     3.414695
      pz      :     1.464436  p :     4.476615
      px      :     1.471533
      py      :     1.540646
      dz2     :     0.008018  d :     0.063520
      dxz     :     0.005646
      dyz     :     0.016662
      dx2y2   :     0.016882
      dxy     :     0.016313
      f0      :     0.000547  f :     0.005757
      f+1     :     0.000151
      f-1     :     0.000931
      f+2     :     0.000844
      f-2     :     0.000952
      f+3     :     0.001186
      f-3     :     0.001145

  3 C s       :     2.765533  s :     2.765533
      pz      :     1.003620  p :     3.019577
      px      :     0.988682
      py      :     1.027274
      dz2     :     0.053643  d :     0.349833
      dxz     :     0.107740
      dyz     :     0.046688
      dx2y2   :     0.083420
      dxy     :     0.058342
      f0      :     0.003913  f :     0.036873
      f+1     :     0.007194
      f-1     :     0.003745
      f+2     :     0.004449
      f-2     :     0.006030
      f+3     :     0.006262
      f-3     :     0.005280

  4 C s       :     2.712823  s :     2.712823
      pz      :     0.883032  p :     2.859318
      px      :     0.969849
      py      :     1.006437
      dz2     :     0.036228  d :     0.488729
      dxz     :     0.067522
      dyz     :     0.074679
      dx2y2   :     0.153840
      dxy     :     0.156460
      f0      :     0.003872  f :     0.053982
      f+1     :     0.004165
      f-1     :     0.004462
      f+2     :     0.006644
      f-2     :     0.006573
      f+3     :     0.019092
      f-3     :     0.009173

  5 C s       :     2.764212  s :     2.764212
      pz      :     0.890162  p :     2.924218
      px      :     1.047724
      py      :     0.986333
      dz2     :     0.025438  d :     0.383443
      dxz     :     0.082711
      dyz     :     0.015033
      dx2y2   :     0.156145
      dxy     :     0.104116
      f0      :     0.002993  f :     0.041781
      f+1     :     0.004445
      f-1     :     0.002840
      f+2     :     0.001873
      f-2     :     0.007410
      f+3     :     0.013778
      f-3     :     0.008441

  6 C s       :     2.766108  s :     2.766108
      pz      :     0.906792  p :     2.965932
      px      :     1.016386
      py      :     1.042753
      dz2     :     0.027866  d :     0.388127
      dxz     :     0.036373
      dyz     :     0.055732
      dx2y2   :     0.108508
      dxy     :     0.159649
      f0      :     0.003066  f :     0.043705
      f+1     :     0.003714
      f-1     :     0.004083
      f+2     :     0.006924
      f-2     :     0.002327
      f+3     :     0.014733
      f-3     :     0.008858

  7 C s       :     2.768470  s :     2.768470
      pz      :     0.886333  p :     2.947722
      px      :     1.004029
      py      :     1.057359
      dz2     :     0.026565  d :     0.389757
      dxz     :     0.026756
      dyz     :     0.070591
      dx2y2   :     0.125385
      dxy     :     0.140461
      f0      :     0.002971  f :     0.043343
      f+1     :     0.003379
      f-1     :     0.004310
      f+2     :     0.005162
      f-2     :     0.004349
      f+3     :     0.014576
      f-3     :     0.008596

  8 C s       :     2.766260  s :     2.766260
      pz      :     0.918516  p :     2.951621
      px      :     1.040356
      py      :     0.992750
      dz2     :     0.027068  d :     0.370722
      dxz     :     0.075156
      dyz     :     0.016600
      dx2y2   :     0.151985
      dxy     :     0.099912
      f0      :     0.003213  f :     0.041379
      f+1     :     0.004756
      f-1     :     0.002891
      f+2     :     0.002094
      f-2     :     0.006917
      f+3     :     0.012919
      f-3     :     0.008590

  9 C s       :     2.707691  s :     2.707691
      pz      :     0.877453  p :     2.801593
      px      :     0.948413
[...]
      dxy     :     0.067383
      f0      :     0.001763  f :     0.015062
      f+1     :     0.000890
      f-1     :     0.001798
      f+2     :     0.002228
      f-2     :     0.001986
      f+3     :     0.004266
      f-3     :     0.002132

 11 C s       :     2.707522  s :     2.707522
      pz      :     0.996126  p :     2.828685
      px      :     0.928394
      py      :     0.904165
      dz2     :     0.118718  d :     0.610229
      dxz     :     0.068870
      dyz     :     0.197762
      dx2y2   :     0.116159
      dxy     :     0.108720
      f0      :     0.012843  f :     0.075442
      f+1     :     0.006784
      f-1     :     0.012627
      f+2     :     0.013871
      f-2     :     0.007676
      f+3     :     0.011758
      f-3     :     0.009883

 12 C s       :     2.777494  s :     2.777494
      pz      :     0.964689  p :     2.954889
      px      :     0.947899
      py      :     1.042300
      dz2     :     0.124658  d :     0.594658
      dxz     :     0.085356
      dyz     :     0.178067
      dx2y2   :     0.092979
      dxy     :     0.113598
      f0      :     0.010454  f :     0.061721
      f+1     :     0.007156
      f-1     :     0.009844
      f+2     :     0.011793
      f-2     :     0.007669
      f+3     :     0.008510
      f-3     :     0.006295

 13 Cls       :     5.549116  s :     5.549116
      pz      :     3.538769  p :    10.935756
      px      :     3.738004
      py      :     3.658983
      dz2     :     0.021162  d :     0.102037
      dxz     :     0.020376
      dyz     :     0.028894
      dx2y2   :     0.012720
      dxy     :     0.018886
      f0      :     0.001382  f :     0.011554
      f+1     :     0.001377
      f-1     :     0.002426
      f+2     :     0.001972
      f-2     :     0.002818
      f+3     :     0.000756
      f-3     :     0.000823

 14 C s       :     2.766503  s :     2.766503
      pz      :     0.979484  p :     2.946471
      px      :     0.924243
      py      :     1.042744
      dz2     :     0.068858  d :     0.386031
      dxz     :     0.041258
      dyz     :     0.106347
      dx2y2   :     0.079295
      dxy     :     0.090274
      f0      :     0.005355  f :     0.043980
      f+1     :     0.004497
      f-1     :     0.007229
      f+2     :     0.007940
      f-2     :     0.004877
      f+3     :     0.008100
      f-3     :     0.005983

 15 C s       :     2.763613  s :     2.763613
      pz      :     1.011425  p :     2.940218
      px      :     0.935862
      py      :     0.992930
      dz2     :     0.109078  d :     0.386170
      dxz     :     0.071425
      dyz     :     0.081291
      dx2y2   :     0.084646
      dxy     :     0.039729
      f0      :     0.006029  f :     0.043986
      f+1     :     0.006447
      f-1     :     0.007993
      f+2     :     0.008228
      f-2     :     0.007049
      f+3     :     0.003487
      f-3     :     0.004753

 16 C s       :     2.766281  s :     2.766281
      pz      :     0.994080  p :     2.946454
      px      :     0.925436
      py      :     1.026937
      dz2     :     0.065972  d :     0.385583
      dxz     :     0.047437
      dyz     :     0.121143
      dx2y2   :     0.064860
      dxy     :     0.086170
      f0      :     0.007655  f :     0.044067
      f+1     :     0.005148
      f-1     :     0.005882
      f+2     :     0.007772
      f-2     :     0.004472
      f+3     :     0.007776
      f-3     :     0.005361

 17 C s       :     2.777645  s :     2.777645
      pz      :     0.933887  p :     2.953629
      px      :     0.955839
      py      :     1.063902
      dz2     :     0.129085  d :     0.594474
      dxz     :     0.089935
      dyz     :     0.163939
      dx2y2   :     0.096799
      dxy     :     0.114715
      f0      :     0.009500  f :     0.061574
      f+1     :     0.007549
      f-1     :     0.010387
      f+2     :     0.011244
      f-2     :     0.007500
      f+3     :     0.008918
      f-3     :     0.006474

 18 Cls       :     5.553804  s :     5.553804
      pz      :     3.458809  p :    10.949500
      px      :     3.725129
      py      :     3.765562
      dz2     :     0.030004  d :     0.101770
      dxz     :     0.027202
      dyz     :     0.022657
      dx2y2   :     0.009641
      dxy     :     0.012266
      f0      :     0.002098  f :     0.011440
      f+1     :     0.002486
      f-1     :     0.002075
      f+2     :     0.001778
      f-2     :     0.002205
      f+3     :     0.000367
      f-3     :     0.000431

 19 H s       :     0.637766  s :     0.637766
      pz      :     0.064947  p :     0.146419
      px      :     0.047446
      py      :     0.034026

 20 H s       :     0.776753  s :     0.776753
      pz      :     0.020918  p :     0.061086
      px      :     0.018267
      py      :     0.021901

 21 H s       :     0.778743  s :     0.778743
      pz      :     0.016655  p :     0.059283
      px      :     0.012758
      py      :     0.029870

 22 H s       :     0.785703  s :     0.785703
      pz      :     0.013363  p :     0.059055
      px      :     0.010793
      py      :     0.034899

 23 H s       :     0.792425  s :     0.792425
      pz      :     0.014301  p :     0.059516
      px      :     0.026558
      py      :     0.018657

 24 H s       :     0.790836  s :     0.790836
      pz      :     0.014323  p :     0.058919
      px      :     0.029174
      py      :     0.015422

 25 H s       :     0.782794  s :     0.782794
      pz      :     0.014398  p :     0.061001
      px      :     0.011102
      py      :     0.035501

 26 H s       :     0.700923  s :     0.700923
      pz      :     0.044132  p :     0.113371
      px      :     0.046007
      py      :     0.023232

 27 H s       :     0.783321  s :     0.783321
      pz      :     0.028371  p :     0.060246
      px      :     0.017761
      py      :     0.014113

 28 H s       :     0.783874  s :     0.783874
      pz      :     0.011792  p :     0.059699
      px      :     0.012490
      py      :     0.035417

 29 H s       :     0.782969  s :     0.782969
      pz      :     0.022707  p :     0.060299
      px      :     0.018494
      py      :     0.019097



                      *****************************
                      * MAYER POPULATION ANALYSIS *
                      *****************************

  NA   - Mulliken gross atomic population
  ZA   - Total nuclear charge
  QA   - Mulliken gross atomic charge
  VA   - Mayer's total valence
  BVA  - Mayer's bonded valence
  FA   - Mayer's free valence

  ATOM       NA         ZA         QA         VA         BVA        FA
  0 O      8.4060     8.0000    -0.4060     2.0551     2.0551     0.0000
  1 C      5.6863     6.0000     0.3137     4.2776     4.2776    -0.0000
  2 O      8.3729     8.0000    -0.3729     2.1114     2.1114     0.0000
  3 C      6.1868     6.0000    -0.1868     3.7280     3.7280    -0.0000
  4 C      6.0623     6.0000    -0.0623     3.8211     3.8211     0.0000
  5 C      6.1733     6.0000    -0.1733     3.8911     3.8911    -0.0000
  6 C      6.1738     6.0000    -0.1738     3.8676     3.8676     0.0000
  7 C      6.1370     6.0000    -0.1370     3.8569     3.8569     0.0000
  8 C      6.2320     6.0000    -0.2320     3.9526     3.9526    -0.0000
  9 C      5.7178     6.0000     0.2822     3.5675     3.5675    -0.0000
 10 N      7.3125     7.0000    -0.3125     3.0810     3.0810    -0.0000
 11 C      5.8259     6.0000     0.1741     3.6541     3.6541     0.0000
 12 C      5.9613     6.0000     0.0387     3.8440     3.8440     0.0000
 13 Cl    17.1191    17.0000    -0.1191     1.2122     1.2122     0.0000
 14 C      6.1762     6.0000    -0.1762     3.9265     3.9265     0.0000
 15 C      6.1493     6.0000    -0.1493     3.8664     3.8664    -0.0000
 16 C      6.1766     6.0000    -0.1766     3.9079     3.9079    -0.0000
 17 C      5.9341     6.0000     0.0659     3.8011     3.8011    -0.0000
 18 Cl    17.1205    17.0000    -0.1205     1.2268     1.2268     0.0000
 19 H      0.6363     1.0000     0.3637     0.8980     0.8980     0.0000
 20 H      0.8562     1.0000     0.1438     0.9943     0.9943     0.0000
 21 H      0.8591     1.0000     0.1409     0.9818     0.9818     0.0000
 22 H      0.8654     1.0000     0.1346     0.9704     0.9704    -0.0000
 23 H      0.8619     1.0000     0.1381     0.9658     0.9658    -0.0000
 24 H      0.8586     1.0000     0.1414     0.9646     0.9646     0.0000
 25 H      0.8491     1.0000     0.1509     0.9702     0.9702    -0.0000
 26 H      0.7466     1.0000     0.2534     0.9504     0.9504    -0.0000
 27 H      0.8479     1.0000     0.1521     0.9748     0.9748    -0.0000
 28 H      0.8477     1.0000     0.1523     0.9615     0.9615     0.0000
 29 H      0.8475     1.0000     0.1525     0.9740     0.9740     0.0000

  Mayer bond orders larger than 0.100000
B(  0-O ,  1-C ) :   1.2103 B(  0-O , 19-H ) :   0.8322 B(  1-C ,  2-O ) :   2.0396 
B(  1-C ,  3-C ) :   0.9653 B(  3-C ,  4-C ) :   0.9387 B(  3-C , 20-H ) :   0.9441 
B(  3-C , 21-H ) :   0.9585 B(  4-C ,  5-C ) :   1.3735 B(  4-C ,  9-C ) :   1.2868 
B(  5-C ,  6-C ) :   1.3946 B(  5-C , 22-H ) :   0.9825 B(  6-C ,  7-C ) :   1.3748 
B(  6-C , 23-H ) :   0.9850 B(  7-C ,  8-C ) :   1.4019 B(  7-C , 24-H ) :   0.9767 
B(  8-C ,  9-C ) :   1.3642 B(  8-C , 25-H ) :   0.9661 B(  9-C , 10-N ) :   0.8962 
B( 10-N , 11-C ) :   1.0487 B( 10-N , 26-H ) :   0.8955 B( 11-C , 12-C ) :   1.2683 
B( 11-C , 17-C ) :   1.2564 B( 12-C , 13-Cl) :   0.9926 B( 12-C , 14-C ) :   1.3597 
B( 14-C , 15-C ) :   1.3818 B( 14-C , 27-H ) :   0.9719 B( 15-C , 16-C ) :   1.3805 
B( 15-C , 28-H ) :   0.9733 B( 16-C , 17-C ) :   1.3485 B( 16-C , 29-H ) :   0.9717 
B( 17-C , 18-Cl) :   1.0289 

-------
TIMINGS
-------

Total SCF time: 0 days 0 hours 3 min 43 sec 

Total time                  ....     223.585 sec
Sum of individual times     ....     223.477 sec  (100.0%)

SCF preparation             ....       0.407 sec  (  0.2%)
Fock matrix formation       ....     222.096 sec  ( 99.3%)
  Startup                   ....       0.022 sec  (  0.0% of F)
  Split-RI-J                ....       8.963 sec  (  4.0% of F)
  Chain of spheres X        ....     180.941 sec  ( 81.5% of F)
  XC integration            ....      17.999 sec  (  8.1% of F)
    Basis function eval.    ....       3.872 sec  ( 21.5% of XC)
    Density eval.           ....       5.536 sec  ( 30.8% of XC)
    XC-Functional eval.     ....       0.189 sec  (  1.1% of XC)
    XC-Potential eval.      ....       8.112 sec  ( 45.1% of XC)
  CPCM terms                ....      14.109 sec  (  6.4% of F)
Diagonalization             ....       0.000 sec  (  0.0%)
Density matrix formation    ....       0.047 sec  (  0.0%)
Total Energy calculation    ....       0.029 sec  (  0.0%)
Population analysis         ....       0.095 sec  (  0.0%)
Orbital Transformation      ....       0.080 sec  (  0.0%)
Orbital Orthonormalization  ....       0.000 sec  (  0.0%)
DIIS solution               ....       0.224 sec  (  0.1%)
SOSCF solution              ....       0.499 sec  (  0.2%)
Finished LeanSCF after 223.7 sec

Maximum memory used throughout the entire LEANSCF-calculation: 138.9 MB

-------------------------   --------------------
FINAL SINGLE POINT ENERGY     -1665.523186042097
-------------------------   --------------------

                                *** OPTIMIZATION RUN DONE ***


------------------------------------------------------------------------------
                              ORCA PROPERTY CALCULATIONS
------------------------------------------------------------------------------

GBWName                                 ... Diclofenac\Diclofenac_B3LYP_def2-TZVP\Diclofenac_B3LYP_def2-TZVP.orcainp.gbw
Number of atoms                         ...     30
Number of basis functions               ...    667
Max core memory                         ...   1024 MB

Electric properties:
Dipole moment                           ... YES
Quadrupole moment                       ...  NO
Static polarizability (Dipole/Dipole)   ...  NO
Static polarizability (Dipole/Quad.)    ...  NO
Static polarizability (Quad./Quad.)     ...  NO
Static polarizability (Velocity)        ...  NO

Atomic electric properties:
Dipole moment                           ...  NO
Quadrupole moment                       ...  NO
Static polarizability                   ...  NO

Choice of electric origin               ... Center of mass
Position of electric origin             ...     7.945443     2.259694    -1.274100

General magnetic properties:
Magnetizability                         ...  NO

EPR properties:
g-Tensor (aka g-matrix)                 ...  NO
Zero-Field splitting spin-orbit         ...  NO
Zero-field splitting spin-spin          ...  NO
Hyperfine couplings                     ...  NO (   0 nuclei)
Quadrupole couplings                    ...  NO (   0 nuclei)
Contact density                         ...  NO (   0 nuclei)

NMR properties:
Chemical shifts                         ...  NO (   0 nuclei)
Spin-rotation constants                 ...  NO (   0 nuclei)
Spin-spin couplings                     ...  NO (   0 nuclei,    0 pairs)

Choice of magnetic origin               ... GIAO
Position of magnetic origin             ...     0.000000     0.000000     0.000000

Properties with geometric perturbations:
SCF Hessian                             ...  NO
IR spectrum                             ...  NO
VCD spectrum                            ...  NO
X-ray spectroscopy properties:
SCF XES/XAS/RIXS spectra                ...  NO


-------------
DIPOLE MOMENT
-------------

Method             : SCF
Type of density    : Electron Density
Multiplicity       :   1
Irrep              :   0
Energy             : -1665.5231860420969952 Eh
Relativity type    : 
Basis              : AO
                                X                 Y                 Z
Electronic contribution:     -6.269468125       7.157537123      -1.026674376
Nuclear contribution   :      6.053685325      -5.607968358       1.056117002
                        -----------------------------------------
Total Dipole Moment    :     -0.215782800       1.549568765       0.029442626
                        -----------------------------------------
Magnitude (a.u.)       :      1.564797892
Magnitude (Debye)      :      3.977400153



--------------------
Rotational spectrum 
--------------------
 
Rotational constants in cm-1:             0.014165             0.008143             0.006287 
Rotational constants in MHz :           424.668632           244.135966           188.472429 

Dipole components along the rotational axes: 
x,y,z [a.u.] :     1.524432     0.286472     0.206476 
x,y,z [Debye]:     3.874799     0.728153     0.524820 

 

Dipole moment calculation done in   0.0 sec 

Maximum memory used throughout the entire PROP-calculation: 82.7 MB

--------------------------------
SUGGESTED CITATIONS FOR THIS RUN
--------------------------------

Below you find a list of papers that are relevant to this ORCA run
We neither can nor want to force you to cite these papers, but we appreciate if you do
You receive ORCA, which is the product of decades of hard work by many enthusiastic individuals, for free
The only thing we kindly ask in return is that you cite our papers,
We deeply appreciate it, if you show your appreciation for ORCA by not just citing the generic ORCA reference.

Please note that relegating all ORCA citations to the supporting information does *not* help us.
SI sections are not indexed - citations you put there will not count into any citation statistics
But we need these citations in order to attract the funding resources that allow us to do what we are doing

Therefore, if you are a happy ORCA user, please consider citing a few of the papers listed below in the main body of your paper

In addition to the list printed below, the program has created the file Diclofenac\Diclofenac_B3LYP_def2-TZVP\Diclofenac_B3LYP_def2-TZVP.orcainp.bibtex that contains the list in bibtex format
You can import this file easily into all common literature databanks and citation aid programs


List of essential papers. We consider these as the minimum necessary citations

  1. Neese,F.
     Software update: the ORCA program system, version 5.0
     WIRES Comput. Molec. Sci., 2022 12(1)e1606
     doi.org/10.1002/wcms.1606

List of papers to cite with high priority. The work reported in these papers was absolutely
necessary for this run to complete.
Our perspective: the developers of density functionals and basis sets usually get cited in chemistry papers
Good! But without the algorithms to do something with them, the functionals or basis sets would not do anything.
Hence, in our opinion, the algorithm design and method developments papers are equally worthy of getting cited

  1. Neese,F.
     An improvement of the resolution of the identity approximation for the formation of the Coulomb matrix
     J. Comp. Chem., 2003 24(14)1740-1747
     doi.org/10.1002/jcc.10318
  2. Neese,F.; Wennmohs,F.; Hansen,A.; Becker,U.
     Efficient, approximate and parallel Hartree-Fock and hybrid DFT calculations. A 'chain-of-spheres' algorithm for the Hartree-Fock exchange
     Chem. Phys., 2009 356(1-3)98-109
     doi.org/10.1016/j.chemphys.2008.10.036
  3. Garcia-Rates,M.; Neese,F.
     Effect of the Solute Cavity on the Solvation Energy and its Derivatives within the Framework of the Gaussian Charge Scheme
     J. Comput. Chem., 2020 41 922-939
     doi.org/10.1002/jcc.26139
  4. Helmich-Paris,B.; de Souza,B.; Neese,F.; Izsák,R.
     An improved chain of spheres for exchange algorithm
     J. Chem. Phys., 2021 155 104109
     doi.org/doi: 10.1063/5.0058766.
  5. Neese,F.
     The SHARK Integral Generation and Digestion System
     J. Comp. Chem., 2022  1-16
     doi.org/10.1002/jcc.26942

List of suggested additional citations. These are papers that are important in the 'surrounding' of 
of this run, or papers that preceded the highly important papers. If you like your results we are grateful for a citation.

  1. Izsak,R.; Neese,F.
     An overlap fitted chain of spheres exchange method
     J. Chem. Phys., 2011 135 144105
     doi.org/10.1063/1.3646921
  2. Izsak,R.; Hansen,A.; Neese,F.
     The resolution of identity and chain of spheres approximations for the LPNO-CCSD singles Fock term
     Molec. Phys., 2012 110 2413-2417
     doi.org/10.1080/00268976.2012.687466
  3. Neese,F.
     The ORCA program system
     WIRES Comput. Molec. Sci., 2012 2(1)73-78
     doi.org/10.1002/wcms.81
  4. Izsak,R.; Neese,F.; Klopper,W.
     Robust fitting techniques in the chain of spheres approximation to the Fock exchange: The role of the complementary space
     J. Chem. Phys., 2013 139 
     doi.org/10.1063/1.4819264
  5. Neese,F.
     Software update: the ORCA program system, version 4.0
     WIRES Comput. Molec. Sci., 2018 8(1)1-6
     doi.org/10.1002/wcms.1327
  6. Neese,F.; Wennmohs,F.; Becker,U.; Riplinger,C.
     The ORCA quantum chemistry program package
     J. Chem. Phys., 2020 152 Art. No. L224108
     doi.org/10.1063/5.0004608

List of optional additional citations

  1. Neese,F.
     Approximate second-order SCF convergence for spin unrestricted wavefunctions
     Chem. Phys. Lett., 2000 325(1-3)93-98
     doi.org/10.1016/s0009-2614(00)00662-x

Timings for individual modules:

Sum of individual times          ...     8457.385 sec (= 140.956 min)
Startup calculation              ...       74.367 sec (=   1.239 min)   0.9 %
SCF iterations                   ...     5229.156 sec (=  87.153 min)  61.8 %
Property calculations            ...        0.146 sec (=   0.002 min)   0.0 %
SCF Gradient evaluation          ...     3153.479 sec (=  52.558 min)  37.3 %
Geometry relaxation              ...        0.237 sec (=   0.004 min)   0.0 %
                             ****ORCA TERMINATED NORMALLY****
TOTAL RUN TIME: 0 days 2 hours 21 minutes 0 seconds 459 msec
