
                                 *****************
                                 * O   R   C   A *
                                 *****************

                                            #,                                       
                                            ###                                      
                                            ####                                     
                                            #####                                    
                                            ######                                   
                                           ########,                                 
                                     ,,################,,,,,                         
                               ,,#################################,,                 
                          ,,##########################################,,             
                       ,#########################################, ''#####,          
                    ,#############################################,,   '####,        
                  ,##################################################,,,,####,       
                ,###########''''           ''''###############################       
              ,#####''   ,,,,##########,,,,          '''####'''          '####       
            ,##' ,,,,###########################,,,                        '##       
           ' ,,###''''                  '''############,,,                           
         ,,##''                                '''############,,,,        ,,,,,,###''
      ,#''                                            '''#######################'''  
     '                                                          ''''####''''         
             ,#######,   #######,   ,#######,      ##                                
            ,#'     '#,  ##    ##  ,#'     '#,    #''#        ,####,   ,####,        
            ##       ##  ##   ,#'  ##            #'  '#       #'       #'  '#        
            ##       ##  #######   ##           ,######,      #####,   #    #        
            '#,     ,#'  ##    ##  '#,     ,#' ,#      #,     #,   #   #,  ,#        
             '#######'   ##     ##  '#######'  #'      '#     '####' # '####'        



                #########################################################
                #                        -***-                          #
                #          Department of theory and spectroscopy        #
                #                                                       #
                #                      Frank Neese                      #
                #                                                       #
                #     Directorship, Architecture, Infrastructure        #
                #                    SHARK, DRIVERS                     #
                #        Core code/Algorithms in most modules           #
                #                                                       #
                #        Max Planck Institute fuer Kohlenforschung      #
                #                Kaiser Wilhelm Platz 1                 #
                #                 D-45470 Muelheim/Ruhr                 #
                #                      Germany                          #
                #                                                       #
                #                  All rights reserved                  #
                #                        -***-                          #
                #########################################################


                         Program Version 6.0.0  -   RELEASE   -


 With contributions from (in alphabetic order):
   Daniel Aravena         : Magnetic Suceptibility
   Michael Atanasov       : Ab Initio Ligand Field Theory (pilot matlab implementation)
   Alexander A. Auer      : GIAO ZORA, VPT2 properties, NMR spectrum
   Ute Becker             : All parallelization in ORCA, NUMFREQ, NUMCALC
   Giovanni Bistoni       : ED, misc. LED, open-shell LED, HFLD
   Martin Brehm           : Molecular dynamics
   Dmytro Bykov           : pre 5.0 version of the SCF Hessian
   Marcos Casanova-Páez   : Triplet and SCS-CIS(D). UHF-(DLPNO)-IP/EA/STEOM-CCSD. UHF-CVS-IP/STEOM-CCSD
   Vijay G. Chilkuri      : MRCI spin determinant printing, contributions to CSF-ICE
   Pauline Colinet        : FMM embedding
   Dipayan Datta          : RHF DLPNO-CCSD density
   Achintya Kumar Dutta   : EOM-CC, STEOM-CC
   Nicolas Foglia         : Exact transition moments, OPA infrastructure, MCD improvements
   Dmitry Ganyushin       : Spin-Orbit,Spin-Spin,Magnetic field MRCI
   Miquel Garcia          : C-PCM and meta-GGA Hessian, CCSD/C-PCM, Gaussian charge scheme
   Tiago L. C. Gouveia    : GS-ROHF, GS-ROCIS
   Yang Guo               : DLPNO-NEVPT2, F12-NEVPT2, CIM, IAO-localization
   Andreas Hansen         : Spin unrestricted coupled pair/coupled cluster methods
   Ingolf Harden          : AUTO-CI MPn and infrastructure 
   Benjamin Helmich-Paris : MC-RPA, TRAH-(SCF,CASSCF), AVAS, COSX integrals, SCF dyn. polar.
   Lee Huntington         : MR-EOM, pCC
   Robert Izsak           : Overlap fitted RIJCOSX, COSX-SCS-MP3, EOM
   Riya Kayal             : Wick's Theorem for AUTO-CI, AUTO-CI UHF-CCSDT
   Emily Kempfer          : AUTO-CI, RHF CISDT and CCSDT
   Christian Kollmar      : KDIIS, OOCD, Brueckner-CCSD(T), CCSD density, CASPT2, CASPT2-K, improved NEVPT2
   Axel Koslowski         : Symmetry handling
   Simone Kossmann        : Meta GGA functionals, TD-DFT gradient, OOMP2, (MP2 Hessian; deprecated post 5.0)
   Lucas Lang             : DCDCAS
   Marvin Lechner         : AUTO-CI (C++ implementation), FIC-MRCC
   Spencer Leger          : CASSCF response
   Dagmar Lenk            : GEPOL surface, SMD, ORCA-2-JSON
   Dimitrios Liakos       : Extrapolation schemes; Compound Job, initial MDCI parallelization
   Dimitrios Manganas     : Further ROCIS development; embedding schemes. LFT, Crystal Embedding
   Dimitrios Pantazis     : SARC Basis sets
   Anastasios Papadopoulos: AUTO-CI, single reference methods and gradients
   Taras Petrenko         : pre 6.0 DFT Hessian and TD-DFT gradient, (ASA, deprecated), ECA, 1-Electron XAS/XES, NRVS
   Peter Pinski           : DLPNO-MP2, DLPNO-MP2 Gradient
   Christoph Reimann      : Effective Core Potentials
   Marius Retegan         : Local ZFS, SOC
   Christoph Riplinger    : Optimizer, TS searches, QM/MM, DLPNO-CCSD(T), (RO)-DLPNO pert. Triples
   Michael Roemelt        : Original ROCIS implementation
   Masaaki Saitow         : Open-shell DLPNO-CCSD energy and density
   Barbara Sandhoefer     : DKH picture change effects
   Kantharuban Sivalingam : CASSCF convergence/infrastructure, NEVPT2 and variants, FIC-MRCI
   Bernardo de Souza      : ESD, SOC TD-DFT
   Georgi Stoychev        : AutoAux, RI-MP2 NMR, DLPNO-MP2 response, X2C
   Van Anh Tran           : RI-MP2 g-tensors
   Willem Van den Heuvel  : Paramagnetic NMR
   Zikuan Wang            : NOTCH, Electric field optimization 
   Frank Wennmohs         : Technical directorship and infrastructure
   Hang Xu                : AUTO-CI-Response properties 


 We gratefully acknowledge several colleagues who have allowed us to
 interface, adapt or use parts of their codes:
   Stefan Grimme, W. Hujo, H. Kruse, P. Pracht,  : VdW corrections, initial TS optimization,
                  C. Bannwarth, S. Ehlert,         DFT functionals, gCP, sTDA/sTD-DF
                  L. Wittmann, M. Mueller
   Ed Valeev, F. Pavosevic, A. Kumar             : LibInt (2-el integral package), F12 methods
   Garnet Chan, S. Sharma, J. Yang, R. Olivares  : DMRG
   Ulf Ekstrom                                   : XCFun DFT Library
   Mihaly Kallay                                 : mrcc  (arbitrary order and MRCC methods)
   Frank Weinhold                                : gennbo (NPA and NBO analysis)
   Simon Mueller                                 : openCOSMO-RS
   Christopher J. Cramer and Donald G. Truhlar   : smd solvation model
   Lars Goerigk                                  : TD-DFT with DH, B97 family of functionals
   V. Asgeirsson, H. Jonsson                     : NEB implementation
   FAccTs GmbH                                   : IRC, NEB, NEB-TS, DLPNO-Multilevel, CI-OPT
                                                   MM, QMMM, 2- and 3-layer-ONIOM, Crystal-QMMM,
                                                   LR-CPCM, SF, NACMEs, symmetry and pop. for TD-DFT,
                                                   nearIR, NL-DFT gradient (VV10), updates on ESD,
                                                   ML-optimized integration grids, MBIS, APM,
                                                   GOAT, DOCKER, SOLVATOR, interface openCOSMO-RS
   S Lehtola, MJT Oliveira, MAL Marques          : LibXC Library
   Liviu Ungur et al                             : ANISO software


 Your calculation uses the libint2 library for the computation of 2-el integrals
 For citations please refer to: http://libint.valeyev.net

 Your ORCA version has been built with support for libXC version: 6.2.2
 For citations please refer to: https://libxc.gitlab.io

 This ORCA versions uses:
   CBLAS   interface :  Fast vector & matrix operations
   LAPACKE interface :  Fast linear algebra routines
   Shared memory     :  Shared parallel matrices


Warning: RI is on but no J-basis has been assigned. Assigning Def2/J (nothing to worry about!)
================================================================================

----- Orbital basis set information -----
Your calculation utilizes the basis: 6-311+G**
   H, Li - Ne  : R. Krishnan, J. S. Binkley, R. Seeger and J. A. Pople, J. Chem. Phys. 72, 650 (1980).
   Na - Ar     : A. D. McLean and G. S. Chandler J. Chem. Phys. 72, 5639, (1980).
   K  - Ca     : J.-P. Blaudeau, M. P. McGrath, L. A. Curtiss and L. Radom, J. Chem. Phys. 107, 5016 (1997).
   Ga - Kr     : L. A. Curtiss, M. P. McGrath, J.-P. Blandeau, N. E. Davis, R. C. Binning and L. Radom, J. Chem. Phys. 103, 6104 (1995).
   Pol./Diff.
   H, Li - Cl  : T. Clark, J. Chandrasekhar and P. v. R. Schleyer, J. Comp. Chem. 4, 294 (1983).
   H - Ne      : M. J. Frisch, J. A. Pople and J. S. Binkley, J. Chem. Phys. 80, 3265 (1984).

----- AuxJ basis set information -----
Your calculation utilizes the auxiliary basis: def2/J
   F. Weigend, Phys. Chem. Chem. Phys. 8, 1057 (2006).

================================================================================
                                        WARNINGS
                       Please study these warnings very carefully!
================================================================================


WARNING: Geometry Optimization
  ===> : Switching off AutoStart
         For restart on a previous wavefunction, please use MOREAD

================================================================================
                                       INPUT FILE
================================================================================
NAME = Diclofenac\Diclofenac_TPSS_6-311+G\Diclofenac_TPSS_6-311+G.orcainp
|  1> # ORCA input file
|  2> # 
|  3> !TPSS 6-311+G** Opt CPCM(WATER)
|  4> * xyz 0 1
|  5>    O        3.20532         0.77222        -3.48165
|  6>    C        3.01992        -0.42363        -2.87260
|  7>    O        2.60439        -1.40765        -3.47515
|  8>    C        3.32048        -0.40706        -1.39156
|  9>    C        4.77373        -0.12881        -1.08244
| 10>    C        5.66943        -1.21342        -1.10651
| 11>    C        7.03233        -1.02123        -0.89021
| 12>    C        7.51453         0.25274        -0.62393
| 13>    C        6.63498         1.33431        -0.58478
| 14>    C        5.26576         1.17391        -0.86041
| 15>    N        4.37299         2.29124        -0.86707
| 16>    C        4.78516         3.66554        -0.98266
| 17>    C        5.63181         4.12934        -2.01264
| 18>   Cl        6.08405         3.13842        -3.35906
| 19>    C        6.11423         5.44479        -2.01214
| 20>    C        5.70652         6.34622        -1.03224
| 21>    C        4.79176         5.94154        -0.06385
| 22>    C        4.33591         4.61788        -0.04136
| 23>   Cl        3.21047         4.17011         1.19560
| 24>    H        3.58943         1.44889        -2.88309
| 25>    H        3.04405        -1.38942        -0.98093
| 26>    H        2.64728         0.30494        -0.90399
| 27>    H        5.30989        -2.22054        -1.31624
| 28>    H        7.71565        -1.86518        -0.93248
| 29>    H        8.57673         0.41196        -0.45771
| 30>    H        7.04962         2.31347        -0.36106
| 31>    H        3.79458         2.21395        -0.02113
| 32>    H        6.80603         5.77305        -2.78574
| 33>    H        6.08452         7.36622        -1.03898
| 34>    H        4.44479         6.65940         0.67650
| 35> *
| 36> 
| 37>                          ****END OF INPUT****
================================================================================

                       *****************************
                       * Geometry Optimization Run *
                       *****************************

Geometry optimization settings:
Update method            Update   .... BFGS
Choice of coordinates    CoordSys .... (2022) Redundant Internals
Initial Hessian          InHess   .... Almloef's Model
Max. no of cycles        MaxIter  .... 90

Convergence Tolerances:
Energy Change            TolE     ....  5.0000e-06 Eh
Max. Gradient            TolMAXG  ....  3.0000e-04 Eh/bohr
RMS Gradient             TolRMSG  ....  1.0000e-04 Eh/bohr
Max. Displacement        TolMAXD  ....  4.0000e-03 bohr
RMS Displacement         TolRMSD  ....  2.0000e-03 bohr
Strict Convergence                .... False

------------------------------------------------------------------------------
                        ORCA OPTIMIZATION COORDINATE SETUP
------------------------------------------------------------------------------

The optimization will be done in redundant internal coordinates (2022)
Making redundant internal coordinates   ...  (2022 redundants) done
Evaluating the initial hessian          ...  (Almloef) done
Evaluating the coordinates              ...  done
Calculating the B-matrix                .... done
Calculating the G-matrix                .... done
Diagonalizing the G-matrix              .... done
Small eigenvalue found = 5.495e-03
Small eigenvalue found = 1.592e-02
Small eigenvalue found = 2.020e-02
The first mode is                       ....   66
The number of degrees of freedom        ....   84

    -----------------------------------------------------------------
                    Redundant Internal Coordinates


    -----------------------------------------------------------------
         Definition                    Initial Value    Approx d2E/dq
    -----------------------------------------------------------------
      1. B(C   1,O   0)                  1.3548         0.636942   
      2. B(O   2,C   1)                  1.2264         1.020724   
      3. B(C   3,C   1)                  1.5113         0.400110   
      4. B(C   4,C   3)                  1.5116         0.399709   
      5. B(C   5,C   4)                  1.4069         0.587286   
      6. B(C   6,C   5)                  1.3933         0.617321   
      7. B(C   7,C   6)                  1.3880         0.629506   
      8. B(C   8,C   7)                  1.3946         0.614306   
      9. B(C   9,C   8)                  1.4059         0.589417   
     10. B(C   9,C   4)                  1.4101         0.580257   
     11. B(N  10,C   9)                  1.4302         0.482746   
     12. B(C  11,N  10)                  1.4394         0.466681   
     13. B(C  12,C  11)                  1.4117         0.577006   
     14. B(Cl 13,C  12)                  1.7318         0.399338   
     15. B(C  14,C  12)                  1.4011         0.599787   
     16. B(C  15,C  14)                  1.3925         0.619124   
     17. B(C  16,C  15)                  1.3922         0.619677   
     18. B(C  17,C  16)                  1.4001         0.601959   
     19. B(C  17,C  11)                  1.4124         0.575479   
     20. B(Cl 18,C  17)                  1.7312         0.400232   
     21. B(H  19,O   0)                  0.9817         0.480150   
     22. B(H  19,N  10)                  2.3212         0.003502   
     23. B(H  20,C   3)                  1.1000         0.347076   
     24. B(H  21,C   3)                  1.0945         0.354234   
     25. B(H  22,C   5)                  1.0897         0.360436   
     26. B(H  23,C   6)                  1.0867         0.364463   
     27. B(H  24,C   7)                  1.0869         0.364288   
     28. B(H  25,C   8)                  1.0866         0.364606   
     29. B(H  26,N  10)                  1.0277         0.405482   
     30. B(H  26,Cl 18)                  2.3766         0.007157   
     31. B(H  27,C  14)                  1.0885         0.362110   
     32. B(H  28,C  15)                  1.0878         0.363009   
     33. B(H  29,C  16)                  1.0880         0.362703   
     34. A(C   1,O   0,H  19)          112.8226         0.366784   
     35. A(O   0,C   1,O   2)          122.2589         0.471280   
     36. A(O   0,C   1,C   3)          113.8073         0.400825   
     37. A(O   2,C   1,C   3)          123.8939         0.435950   
     38. A(C   4,C   3,H  20)          109.2471         0.325964   
     39. A(C   4,C   3,H  21)          112.3646         0.327061   
     40. A(C   1,C   3,H  20)          107.8210         0.326018   
     41. A(C   1,C   3,H  21)          108.7456         0.327115   
     42. A(H  20,C   3,H  21)          105.0755         0.288421   
     43. A(C   1,C   3,C   4)          113.1797         0.371943   
     44. A(C   5,C   4,C   9)          119.5227         0.424785   
     45. A(C   3,C   4,C   9)          122.5281         0.396779   
     46. A(C   3,C   4,C   5)          117.8192         0.397619   
     47. A(C   4,C   5,C   6)          120.9164         0.429524   
     48. A(C   6,C   5,H  22)          118.6918         0.352706   
     49. A(C   4,C   5,H  22)          120.3798         0.349746   
     50. A(C   5,C   6,C   7)          119.7515         0.434917   
     51. A(C   5,C   6,H  23)          120.1269         0.353370   
     52. A(C   7,C   6,H  23)          120.1213         0.354542   
     53. A(C   8,C   7,H  24)          119.8986         0.353049   
     54. A(C   6,C   7,H  24)          120.2214         0.354513   
     55. A(C   6,C   7,C   8)          119.8759         0.434534   
     56. A(C   7,C   8,C   9)          121.3491         0.429426   
     57. A(C   9,C   8,H  25)          120.9853         0.350640   
     58. A(C   7,C   8,H  25)          117.6432         0.353101   
     59. A(C   8,C   9,N  10)          121.3141         0.408701   
     60. A(C   4,C   9,N  10)          120.2110         0.407570   
     61. A(C   4,C   9,C   8)          118.4311         0.425061   
     62. A(C   9,N  10,C  11)          124.5774         0.389750   
     63. A(C   9,N  10,H  26)          106.7825         0.340099   
     64. A(C  11,N  10,H  26)          107.4016         0.338183   
     65. A(C  12,C  11,C  17)          117.0973         0.422821   
     66. A(N  10,C  11,C  17)          119.9453         0.404548   
     67. A(N  10,C  11,C  12)          122.9571         0.404737   
     68. A(Cl 13,C  12,C  14)          116.5871         0.416913   
     69. A(C  11,C  12,C  14)          120.9775         0.425961   
     70. A(C  11,C  12,Cl 13)          122.4030         0.414052   
     71. A(C  15,C  14,H  27)          119.4061         0.353157   
     72. A(C  12,C  14,H  27)          120.1134         0.351267   
     73. A(C  12,C  14,C  15)          120.4783         0.431377   
     74. A(C  16,C  15,H  28)          120.3428         0.353359   
     75. A(C  14,C  15,H  28)          120.0595         0.353305   
     76. A(C  14,C  15,C  16)          119.5831         0.433915   
     77. A(C  15,C  16,H  29)          119.4092         0.353308   
     78. A(C  15,C  16,C  17)          119.9922         0.431727   
     79. A(C  17,C  16,H  29)          120.5961         0.351579   
     80. A(C  16,C  17,Cl 18)          117.8813         0.417348   
     81. A(C  11,C  17,Cl 18)          120.5682         0.414021   
     82. A(C  11,C  17,C  16)          121.5462         0.426035   
     83. D(C   3,C   1,O   0,H  19)      5.4575         0.029886   
     84. D(O   2,C   1,O   0,H  19)   -176.7577         0.029886   
     85. D(C   4,C   3,C   1,O   0)    -64.5811         0.011880   
     86. D(H  21,C   3,C   1,O   0)     61.0391         0.011880   
     87. D(H  20,C   3,C   1,O   2)     -3.2758         0.011880   
     88. D(H  20,C   3,C   1,O   0)    174.4674         0.011880   
     89. D(C   4,C   3,C   1,O   2)    117.6757         0.011880   
     90. D(C   5,C   4,C   3,H  21)    152.1542         0.011858   
     91. D(C   9,C   4,C   3,H  20)   -148.2199         0.011858   
     92. D(C   9,C   4,C   3,C   1)     91.6388         0.011858   
     93. D(C   5,C   4,C   3,H  20)     35.9509         0.011858   
     94. D(C   5,C   4,C   3,C   1)    -84.1904         0.011858   
     95. D(H  22,C   5,C   4,C   3)     -1.5999         0.023725   
     96. D(C   6,C   5,C   4,C   3)    177.1212         0.023725   
     97. D(C   6,C   5,C   4,C   9)      1.1621         0.023725   
     98. D(H  22,C   5,C   4,C   9)   -177.5589         0.023725   
     99. D(H  23,C   6,C   5,H  22)      0.0370         0.026356   
    100. D(H  23,C   6,C   5,C   4)   -178.7053         0.026356   
    101. D(C   7,C   6,C   5,H  22)    179.8719         0.026356   
    102. D(C   7,C   6,C   5,C   4)      1.1297         0.026356   
    103. D(H  24,C   7,C   6,H  23)      0.0644         0.027473   
    104. D(H  24,C   7,C   6,C   5)   -179.7706         0.027473   
    105. D(C   8,C   7,C   6,H  23)    179.3269         0.027473   
    106. D(C   8,C   7,C   6,C   5)     -0.5081         0.027473   
    107. D(H  25,C   8,C   7,H  24)     -1.4733         0.026084   
    108. D(H  25,C   8,C   7,C   6)    179.2618         0.026084   
    109. D(C   9,C   8,C   7,H  24)    176.8201         0.026084   
    110. D(C   9,C   8,C   7,C   6)     -2.4448         0.026084   
    111. D(N  10,C   9,C   4,C   3)      2.6341         0.023133   
    112. D(C   8,C   9,C   4,C   5)     -3.9796         0.023133   
    113. D(C   8,C   9,C   4,C   3)   -179.7404         0.023133   
    114. D(N  10,C   9,C   8,H  25)      0.5064         0.023906   
    115. D(N  10,C   9,C   8,C   7)   -177.7301         0.023906   
    116. D(C   4,C   9,C   8,H  25)   -177.0918         0.023906   
    117. D(C   4,C   9,C   8,C   7)      4.6717         0.023906   
    118. D(N  10,C   9,C   4,C   5)    178.3949         0.023133   
    119. D(H  26,N  10,C   9,C   8)   -107.4504         0.019940   
    120. D(H  26,N  10,C   9,C   4)     70.1055         0.019940   
    121. D(C  11,N  10,C   9,C   8)     18.5125         0.019940   
    122. D(C  11,N  10,C   9,C   4)   -163.9316         0.019940   
    123. D(C  17,C  11,N  10,H  26)     -2.2690         0.018602   
    124. D(C  17,C  11,N  10,C   9)   -127.9682         0.018602   
    125. D(C  12,C  11,N  10,H  26)    177.9402         0.018602   
    126. D(C  12,C  11,N  10,C   9)     52.2409         0.018602   
    127. D(C  14,C  12,C  11,C  17)      6.5887         0.022863   
    128. D(C  14,C  12,C  11,N  10)   -173.6148         0.022863   
    129. D(Cl 13,C  12,C  11,C  17)   -171.2697         0.022863   
    130. D(Cl 13,C  12,C  11,N  10)      8.5267         0.022863   
    131. D(H  27,C  14,C  12,Cl 13)     -5.0999         0.024799   
    132. D(H  27,C  14,C  12,C  11)    176.9220         0.024799   
    133. D(C  15,C  14,C  12,Cl 13)    174.3526         0.024799   
    134. D(C  15,C  14,C  12,C  11)     -3.6256         0.024799   
    135. D(H  28,C  15,C  14,H  27)     -0.4765         0.026520   
    136. D(H  28,C  15,C  14,C  12)   -179.9328         0.026520   
    137. D(C  16,C  15,C  14,H  27)    178.1377         0.026520   
    138. D(C  16,C  15,C  14,C  12)     -1.3186         0.026520   
    139. D(H  29,C  16,C  15,H  28)      1.0447         0.026570   
    140. D(H  29,C  16,C  15,C  14)   -177.5655         0.026570   
    141. D(C  17,C  16,C  15,H  28)   -178.3772         0.026570   
    142. D(C  17,C  16,C  15,C  14)      3.0125         0.026570   
    143. D(Cl 18,C  17,C  11,N  10)     -3.9322         0.022737   
    144. D(C  16,C  17,C  11,C  12)     -4.9004         0.022737   
    145. D(C  16,C  17,C  11,N  10)    175.2967         0.022737   
    146. D(Cl 18,C  17,C  16,H  29)      0.0162         0.024989   
    147. D(Cl 18,C  17,C  16,C  15)    179.4312         0.024989   
    148. D(C  11,C  17,C  16,H  29)   -179.2326         0.024989   
    149. D(C  11,C  17,C  16,C  15)      0.1823         0.024989   
    150. D(Cl 18,C  17,C  11,C  12)    175.8707         0.022737   
    -----------------------------------------------------------------

Number of atoms                         .... 30
Number of degrees of freedom            .... 150


         *************************************************************
         *                GEOMETRY OPTIMIZATION CYCLE   1            *
         *************************************************************
---------------------------------
CARTESIAN COORDINATES (ANGSTROEM)
---------------------------------
  O      3.205320    0.772220   -3.481650
  C      3.019920   -0.423630   -2.872600
  O      2.604390   -1.407650   -3.475150
  C      3.320480   -0.407060   -1.391560
  C      4.773730   -0.128810   -1.082440
  C      5.669430   -1.213420   -1.106510
  C      7.032330   -1.021230   -0.890210
  C      7.514530    0.252740   -0.623930
  C      6.634980    1.334310   -0.584780
  C      5.265760    1.173910   -0.860410
  N      4.372990    2.291240   -0.867070
  C      4.785160    3.665540   -0.982660
  C      5.631810    4.129340   -2.012640
  Cl     6.084050    3.138420   -3.359060
  C      6.114230    5.444790   -2.012140
  C      5.706520    6.346220   -1.032240
  C      4.791760    5.941540   -0.063850
  C      4.335910    4.617880   -0.041360
  Cl     3.210470    4.170110    1.195600
  H      3.589430    1.448890   -2.883090
  H      3.044050   -1.389420   -0.980930
  H      2.647280    0.304940   -0.903990
  H      5.309890   -2.220540   -1.316240
  H      7.715650   -1.865180   -0.932480
  H      8.576730    0.411960   -0.457710
  H      7.049620    2.313470   -0.361060
  H      3.794580    2.213950   -0.021130
  H      6.806030    5.773050   -2.785740
  H      6.084520    7.366220   -1.038980
  H      4.444790    6.659400    0.676500

----------------------------
CARTESIAN COORDINATES (A.U.)
----------------------------
  NO LB      ZA    FRAG     MASS         X           Y           Z
   0 O     8.0000    0    15.999    6.057177    1.459284   -6.579365
   1 C     6.0000    0    12.011    5.706822   -0.800545   -5.428427
   2 O     8.0000    0    15.999    4.921584   -2.660073   -6.567082
   3 C     6.0000    0    12.011    6.274798   -0.769232   -2.629667
   4 C     6.0000    0    12.011    9.021042   -0.243416   -2.045515
   5 C     6.0000    0    12.011   10.713670   -2.293031   -2.091001
   6 C     6.0000    0    12.011   13.289178   -1.929845   -1.682253
   7 C     6.0000    0    12.011   14.200404    0.477609   -1.179057
   8 C     6.0000    0    12.011   12.538295    2.521480   -1.105074
   9 C     6.0000    0    12.011    9.950844    2.218368   -1.625939
  10 N     7.0000    0    14.007    8.263753    4.329816   -1.638525
  11 C     6.0000    0    12.011    9.042642    6.926867   -1.856958
  12 C     6.0000    0    12.011   10.642579    7.803322   -3.803338
  13 Cl   17.0000    0    35.453   11.497188    5.930754   -6.347703
  14 C     6.0000    0    12.011   11.554220   10.289162   -3.802394
  15 C     6.0000    0    12.011   10.783760   11.992618   -1.950651
  16 C     6.0000    0    12.011    9.055114   11.227883   -0.120659
  17 C     6.0000    0    12.011    8.193682    8.726529   -0.078159
  18 Cl   17.0000    0    35.453    6.066909    7.880366    2.259357
  19 H     1.0000    0     1.008    6.783040    2.738005   -5.448251
  20 H     1.0000    0     1.008    5.752421   -2.625623   -1.853689
  21 H     1.0000    0     1.008    5.002634    0.576253   -1.708294
  22 H     1.0000    0     1.008   10.034238   -4.196212   -2.487333
  23 H     1.0000    0     1.008   14.580465   -3.524679   -1.762132
  24 H     1.0000    0     1.008   16.207671    0.778492   -0.864947
  25 H     1.0000    0     1.008   13.321851    4.371825   -0.682305
  26 H     1.0000    0     1.008    7.170717    4.183759   -0.039930
  27 H     1.0000    0     1.008   12.861533   10.909483   -5.264286
  28 H     1.0000    0     1.008   11.498076   13.920138   -1.963388
  29 H     1.0000    0     1.008    8.399436   12.584442    1.278400

--------------------------------
INTERNAL COORDINATES (ANGSTROEM)
--------------------------------
 O      0   0   0     0.000000000000     0.00000000     0.00000000
 C      1   0   0     1.354759124346     0.00000000     0.00000000
 O      2   1   0     1.226387803185   122.25886070     0.00000000
 C      2   1   3     1.511320733696   113.80731677   182.21517733
 C      4   2   1     1.511593132890   113.17973868   295.41889602
 C      5   4   2     1.406853477445   117.81917752   275.80959513
 C      6   5   4     1.393276388984   120.91640178   177.12116677
 C      7   6   5     1.387955849190   119.75151965     1.12972456
 C      8   7   6     1.394609117244   119.87585761   359.49189910
 C      9   8   7     1.405867513424   121.34909130   357.55522682
 N     10   9   8     1.430212906318   121.31409752   182.26987130
 C     11  10   9     1.439425457257   124.57742099    18.51254303
 C     12  11  10     1.411660533875   122.95710227    52.24088466
 Cl    13  12  11     1.731845917049   122.40300131     8.52670708
 C     13  12  11     1.401120269249   120.97751612   186.38520438
 C     15  13  12     1.392482495043   120.47830003   356.37438051
 C     16  15  13     1.392239545517   119.58306033   358.68141614
 C     17  16  15     1.400135999894   119.99215386     3.01253646
 Cl    18  17  16     1.731237478828   117.88126431   179.43119454
 H      1   2   3     0.981680627597   112.82262353   183.24233414
 H      4   2   1     1.100028050279   107.82103038   174.46741659
 H      4   2   1     1.094470988606   108.74559446    61.03913464
 H      6   5   4     1.089746015776   120.37979839   358.40012770
 H      7   6   5     1.086721941345   120.12693205   181.29474095
 H      8   7   6     1.086852766846   120.22144722   180.22944026
 H      9   8   7     1.086614592945   117.64318796   179.26184483
 H     11  10   9     1.027689814973   106.78254679   252.54963810
 H     15  13  12     1.088484647388   120.11337558   176.92196454
 H     16  15  13     1.087809462912   120.05950006   180.06718666
 H     17  16  15     1.088039191849   119.40919265   182.43445238

---------------------------
INTERNAL COORDINATES (A.U.)
---------------------------
 O      0   0   0     0.000000000000     0.00000000     0.00000000
 C      1   0   0     2.560123722446     0.00000000     0.00000000
 O      2   1   0     2.317537082000   122.25886070     0.00000000
 C      2   1   3     2.855982287203   113.80731677   182.21517733
 C      4   2   1     2.856497047078   113.17973868   295.41889602
 C      5   4   2     2.658567782926   117.81917752   275.80959513
 C      6   5   4     2.632910804038   120.91640178   177.12116677
 C      7   6   5     2.622856440943   119.75151965     1.12972456
 C      8   7   6     2.635429295461   119.87585761   359.49189910
 C      9   8   7     2.656704580948   121.34909130   357.55522682
 N     10   9   8     2.702710706142   121.31409752   182.26987130
 C     11  10   9     2.720119904410   124.57742099    18.51254303
 C     12  11  10     2.667651803089   122.95710227    52.24088466
 Cl    13  12  11     3.272714489373   122.40300131     8.52670708
 C     13  12  11     2.647733589566   120.97751612   186.38520438
 C     15  13  12     2.631410561910   120.47830003   356.37438051
 C     16  15  13     2.630951453841   119.58306033   358.68141614
 C     17  16  15     2.645873590044   119.99215386     3.01253646
 Cl    18  17  16     3.271564707766   117.88126431   179.43119454
 H      1   2   3     1.855107537135   112.82262353   183.24233414
 H      4   2   1     2.078751754658   107.82103038   174.46741659
 H      4   2   1     2.068250429987   108.74559446    61.03913464
 H      6   5   4     2.059321525349   120.37979839   358.40012770
 H      7   6   5     2.053606852865   120.12693205   181.29474095
 H      8   7   6     2.053854077233   120.22144722   180.22944026
 H      9   8   7     2.053403993787   117.64318796   179.26184483
 H     11  10   9     1.942052300920   106.78254679   252.54963810
 H     15  13  12     2.056937884542   120.11337558   176.92196454
 H     16  15  13     2.055661970791   120.05950006   180.06718666
 H     17  16  15     2.056096095568   119.40919265   182.43445238

---------------------
BASIS SET INFORMATION
---------------------
There are 5 groups of distinct atoms

 Group   1 Type O   : 12s6p1d contracted to 5s4p1d pattern {63111/3111/1}
 Group   2 Type C   : 12s6p1d contracted to 5s4p1d pattern {63111/3111/1}
 Group   3 Type N   : 12s6p1d contracted to 5s4p1d pattern {63111/3111/1}
 Group   4 Type Cl  : 14s11p1d contracted to 7s6p1d pattern {6311111/521111/1}
 Group   5 Type H   : 5s1p contracted to 3s1p pattern {311/1}

Atom   0O    basis set group =>   1
Atom   1C    basis set group =>   2
Atom   2O    basis set group =>   1
Atom   3C    basis set group =>   2
Atom   4C    basis set group =>   2
Atom   5C    basis set group =>   2
Atom   6C    basis set group =>   2
Atom   7C    basis set group =>   2
Atom   8C    basis set group =>   2
Atom   9C    basis set group =>   2
Atom  10N    basis set group =>   3
Atom  11C    basis set group =>   2
Atom  12C    basis set group =>   2
Atom  13Cl   basis set group =>   4
Atom  14C    basis set group =>   2
Atom  15C    basis set group =>   2
Atom  16C    basis set group =>   2
Atom  17C    basis set group =>   2
Atom  18Cl   basis set group =>   4
Atom  19H    basis set group =>   5
Atom  20H    basis set group =>   5
Atom  21H    basis set group =>   5
Atom  22H    basis set group =>   5
Atom  23H    basis set group =>   5
Atom  24H    basis set group =>   5
Atom  25H    basis set group =>   5
Atom  26H    basis set group =>   5
Atom  27H    basis set group =>   5
Atom  28H    basis set group =>   5
Atom  29H    basis set group =>   5
---------------------------------
AUXILIARY/J BASIS SET INFORMATION
---------------------------------
There are 5 groups of distinct atoms

 Group   1 Type O   : 12s5p4d2f1g contracted to 6s4p3d1f1g pattern {711111/2111/211/2/1}
 Group   2 Type C   : 12s5p4d2f1g contracted to 6s4p3d1f1g pattern {711111/2111/211/2/1}
 Group   3 Type N   : 12s5p4d2f1g contracted to 6s4p3d1f1g pattern {711111/2111/211/2/1}
 Group   4 Type Cl  : 14s5p5d2f1g contracted to 8s4p3d1f1g pattern {71111111/2111/311/2/1}
 Group   5 Type H   : 5s2p1d contracted to 3s1p1d pattern {311/2/1}

Atom   0O    basis set group =>   1
Atom   1C    basis set group =>   2
Atom   2O    basis set group =>   1
Atom   3C    basis set group =>   2
Atom   4C    basis set group =>   2
Atom   5C    basis set group =>   2
Atom   6C    basis set group =>   2
Atom   7C    basis set group =>   2
Atom   8C    basis set group =>   2
Atom   9C    basis set group =>   2
Atom  10N    basis set group =>   3
Atom  11C    basis set group =>   2
Atom  12C    basis set group =>   2
Atom  13Cl   basis set group =>   4
Atom  14C    basis set group =>   2
Atom  15C    basis set group =>   2
Atom  16C    basis set group =>   2
Atom  17C    basis set group =>   2
Atom  18Cl   basis set group =>   4
Atom  19H    basis set group =>   5
Atom  20H    basis set group =>   5
Atom  21H    basis set group =>   5
Atom  22H    basis set group =>   5
Atom  23H    basis set group =>   5
Atom  24H    basis set group =>   5
Atom  25H    basis set group =>   5
Atom  26H    basis set group =>   5
Atom  27H    basis set group =>   5
Atom  28H    basis set group =>   5
Atom  29H    basis set group =>   5
------------------------------------------------------------------------------
                             ORCA STARTUP CALCULATIONS
                           -- RI-GTO INTEGRALS CHOSEN --
------------------------------------------------------------------------------
------------------------------------------------------------------------------
                   ___                                                        
                  /   \      - P O W E R E D   B Y -                         
                 /     \                                                     
                 |  |  |   _    _      __       _____    __    __             
                 |  |  |  | |  | |    /  \     |  _  \  |  |  /  |          
                  \  \/   | |  | |   /    \    | | | |  |  | /  /          
                 / \  \   | |__| |  /  /\  \   | |_| |  |  |/  /          
                |  |  |   |  __  | /  /__\  \  |    /   |      \           
                |  |  |   | |  | | |   __   |  |    \   |  |\   \          
                \     /   | |  | | |  |  |  |  | |\  \  |  | \   \       
                 \___/    |_|  |_| |__|  |__|  |_| \__\ |__|  \__/        
                                                                              
                      - O R C A' S   B I G   F R I E N D -                    
                                      &                                       
                       - I N T E G R A L  F E E D E R -                       
                                                                              
 v1 FN, 2020, v2 2021, v3 2022-2024                                           
------------------------------------------------------------------------------


----------------------
SHARK INTEGRAL PACKAGE
----------------------

Number of atoms                             ...     30
Number of basis functions                   ...    500
Number of shells                            ...    242
Maximum angular momentum                    ...      2
Integral batch strategy                     ... SHARK/LIBINT Hybrid
RI-J (if used) integral strategy            ... SPLIT-RIJ (Revised 2003 algorithm where possible)
Printlevel                                  ...      1
Contraction scheme used                     ... SEGMENTED contraction
Prescreening option                         ... SCHWARTZ
   Thresh                                   ... 2.500e-11
   Tcut                                     ... 2.500e-12
   Tpresel                                  ... 2.500e-12 
Coulomb Range Separation                    ... NOT USED
Exchange Range Separation                   ... NOT USED
Multipole approximations                    ... NOT USED
Finite Nucleus Model                        ... NOT USED
CABS basis                                  ... NOT available
Auxiliary Coulomb fitting basis             ... AVAILABLE
   # of basis functions in Aux-J            ...   1056
   # of shells in Aux-J                     ...    344
   Maximum angular momentum in Aux-J        ...      4
Auxiliary J/K fitting basis                 ... NOT available
Auxiliary Correlation fitting basis         ... NOT available
Auxiliary 'external' fitting basis          ... NOT available

Checking pre-screening integrals            ... done (  0.0 sec) Dimension = 242
Check shell pair data                       ... done (  0.0 sec)
Shell pair information
Shell pair cut-off parameter TPreSel        ...   2.5e-12
Total number of shell pairs                 ...     29403
Shell pairs after pre-screening             ...     23115
Total number of primitive shell pairs       ...     97909
Primitive shell pairs kept                  ...     51209
          la=0 lb=0:   6654 shell pairs
          la=1 lb=0:   9637 shell pairs
          la=1 lb=1:   3522 shell pairs
          la=2 lb=0:   1804 shell pairs
          la=2 lb=1:   1355 shell pairs
          la=2 lb=2:    143 shell pairs

Calculating one electron integrals          ... done (  0.1 sec)
Calculating RI/J V-Matrix + Cholesky decomp.... done (  0.0 sec)
Calculating Nuclear repulsion               ... done (  0.0 sec) ENN=   1645.217004874859 Eh

Diagonalization of the overlap matrix:
Smallest eigenvalue                        ... 4.502e-07
Time for diagonalization                   ...    0.014 sec
Threshold for overlap eigenvalues          ... 1.000e-07
Number of eigenvalues below threshold      ... 0

IMPORTANT:
Smallest eigenvalue of S below the DiffSThresh (1.000e-06) while
Thresh>1e-12 and/or TCut>1e-13! In order to avoid SCF convergence issues,
Thresh will be set to at least 1e-12 and TCut to at least 1e-13.
This can be turned off by adding %SCF DiffSThresh -1 END to the input.

Time for construction of square roots      ...    0.012 sec
Total time needed                          ...    0.028 sec

-------------------
DFT GRID GENERATION
-------------------

General Integration Accuracy     IntAcc      ... 4.388
Radial Grid Type                 RadialGrid  ... OptM3 with GC (2021)
Angular Grid (max. ang.)         AngularGrid ... 4 (Lebedev-302)
Angular grid pruning method      GridPruning ... 4 (adaptive)
Weight generation scheme         WeightScheme... mBecke (2022)
Basis function cutoff            BFCut       ... 1.0000e-11
Integration weight cutoff        WCut        ... 1.0000e-14
Partially contracted basis set               ... off
Rotationally invariant grid construction     ... off
Angular grids for H and He will be reduced by one unit
Diffuse basis detected: some atoms will have their outermost
                        angular grid increased by 1.

Total number of grid points                  ...   155976
Total number of batches                      ...     2452
Average number of points per batch           ...       63
Average number of grid points per atom       ...     5199
Initializing property integral containers    ... done (  0.0 sec)

SHARK setup successfully completed in   1.4 seconds

Maximum memory used throughout the entire STARTUP-calculation: 84.6 MB
-------------------------------------------------------------------------------
                                 ORCA GUESS
                   Start orbitals & Density for SCF / CASSCF
-------------------------------------------------------------------------------

------------
SCF SETTINGS
------------
Hamiltonian:
 Density Functional     Method          .... DFT(GTOs)
 Exchange Functional    Exchange        .... TPSS
 Correlation Functional Correlation     .... TPSS
 LDA part of GGA corr.  LDAOpt          .... PW91-LDA
 Gradients option       PostSCFGGA      .... off
   NL short-range parameter             ....  5.000000
 RI-approximation to the Coulomb term is turned on
   Number of AuxJ basis functions       .... 1056


General Settings:
 Integral files         IntName         .... Diclofenac\Diclofenac_TPSS_6-311+G\Diclofenac_TPSS_6-311+G.orcainp
 Hartree-Fock type      HFTyp           .... RHF
 Total Charge           Charge          ....    0
 Multiplicity           Mult            ....    1
 Number of Electrons    NEL             ....  152
 Basis Dimension        Dim             ....  500
 Nuclear Repulsion      ENuc            ....   1645.2170048749 Eh

Convergence Acceleration:
 AO-DIIS                CNVDIIS         .... on
   Start iteration      DIISMaxIt       ....    12
   Startup error        DIISStart       ....  0.200000
   # of expansion vecs  DIISMaxEq       ....     5
   Bias factor          DIISBfac        ....   1.050
   Max. coefficient     DIISMaxC        ....  10.000
 MO-DIIS                CNVKDIIS        .... off
 Trust-Rad. Augm. Hess. CNVTRAH         .... auto
   Auto Start mean grad. ratio tolernc. ....  1.125000
   Auto Start start iteration           ....    50
   Auto Start num. interpolation iter.  ....    10
   Max. Number of Micro iterations      ....    24
   Max. Number of Macro iterations      .... Maxiter - #DIIS iter
   Number of Davidson start vectors     ....     2
   Converg. threshold    (grad. norm)   ....   1.000e-05
   Grad. Scal. Fac. for Micro threshold ....   0.100
   Minimum threshold for Micro iter.    ....   1.000e-02
   NR start threshold (gradient norm)   ....   1.000e-04
   Initial trust radius                 ....   0.400
   Minimum AH scaling param. (alpha)    ....   1.000
   Maximum AH scaling param. (alpha)    .... 1000.000
   Quad. conv. algorithm                .... NR
   White noise on init. David. guess    .... on
   Maximum white noise                  ....   0.010
   Pseudo random numbers                .... off
   Inactive MOs                         .... canonical
   Orbital update algorithm             .... Taylor
   Preconditioner                       .... Diag
   Full preconditioner red. dimension   ....   250
 SOSCF                  CNVSOSCF        .... on
   Start iteration      SOSCFMaxIt      ....   150
   Startup grad/error   SOSCFStart      ....  0.003300
   Hessian update       SOSCFHessUp     .... L-BFGS
 Level Shifting         CNVShift        .... on
   Level shift para.    LevelShift      ....    0.2500
   Turn off err/grad.   ShiftErr        ....    0.0010
 Zerner damping         CNVZerner       .... off
 Static damping         CNVDamp         .... on
   Fraction old density DampFac         ....    0.7000
   Max. Damping (<1)    DampMax         ....    0.9800
   Min. Damping (>=0)   DampMin         ....    0.0000
   Turn off err/grad.   DampErr         ....    0.1000

SCF Procedure:
 Maximum # iterations   MaxIter         ....   125
 SCF integral mode      SCFMode         .... Direct
   Integral package                     .... SHARK and LIBINT hybrid scheme
 Reset frequency        DirectResetFreq ....    20
 Integral Threshold     Thresh          ....  1.000e-12 Eh
 Primitive CutOff       TCut            ....  1.000e-13 Eh

Convergence Tolerance:
 Convergence Check Mode ConvCheckMode   .... Total+1el-Energy
 Convergence forced     ConvForced      .... 0
 Energy Change          TolE            ....  1.000e-08 Eh
 1-El. energy change                    ....  1.000e-05 Eh
 Orbital Gradient       TolG            ....  1.000e-05
 Orbital Rotation angle TolX            ....  1.000e-05
 DIIS Error             TolErr          ....  5.000e-07

------------------------------
INITIAL GUESS: MODEL POTENTIAL
------------------------------
Loading Hartree-Fock densities                     ... done
Calculating cut-offs                               ... done
Initializing the effective Hamiltonian             ... done
Setting up the integral package (SHARK)            ... done
Starting the Coulomb interaction                   ... done (   0.6 sec)
Making the grid                                    ... done (   0.3 sec)
Mapping shells                                     ... done
Starting the XC term evaluation                    ... done (   0.9 sec)
  promolecular density results
     # of electrons  =    151.997902447
     EX              =   -152.479471739
     EC              =     -5.314694190
     EX+EC           =   -157.794165929
Transforming the Hamiltonian                       ... done (   0.0 sec)
Diagonalizing the Hamiltonian                      ... done (   0.0 sec)
Back transforming the eigenvectors                 ... done (   0.0 sec)
Now organizing SCF variables                       ... done
                      ------------------
                      INITIAL GUESS DONE (   1.9 sec)
                      ------------------
             **** ENERGY FILE WAS UPDATED (Diclofenac\Diclofenac_TPSS_6-311+G\Diclofenac_TPSS_6-311+G.orcainp.en.tmp) ****
Finished Guess after   2.0 sec
Maximum memory used throughout the entire GUESS-calculation: 54.4 MB

-------------------------------------------------------------------------------------------
                                      ORCA LEAN-SCF
                              memory conserving SCF solver
-------------------------------------------------------------------------------------------

--------------------
CPCM SOLVATION MODEL
--------------------
CPCM parameters:
  Epsilon                                         ...      80.1510
  Refrac                                          ...       1.3328
  Rsolv                                           ...       1.3000
  Surface type                                    ... GAUSSIAN VDW
  Discretization scheme                           ... Constant charge density
    Threshold for H atoms                         ...       5.0000 (charges/Ang^2)
    Threshold for non-H atoms                     ...       5.0000 (charges/Ang^2)
  Epsilon function type                           ...         CPCM
Solvent:                                          ... WATER
Radii:
  Scheme                                          ... Element-dependent radii
  Radius for O  used is    3.4469 Bohr (=   1.8240 Ang.)
  Radius for C  used is    3.8550 Bohr (=   2.0400 Ang.)
  Radius for N  used is    3.5149 Bohr (=   1.8600 Ang.)
  Radius for Cl used is    3.9684 Bohr (=   2.1000 Ang.)
  Radius for H  used is    2.4944 Bohr (=   1.3200 Ang.)
Calculating surface                               ...        done! (  0.0s)
Cavity surface points                             ...         2854
Cavity Volume                                     ...    2166.3234
Cavity Surface-area                               ...    1096.9655
Calculating surface distance matrix               ...        done! (  0.0s)
Performing Cholesky decomposition & store         ...        done! (  0.2s)
Overall time for CPCM initialization              ...                 0.2s

----------------------------------------D-I-I-S--------------------------------------------
Iteration    Energy (Eh)           Delta-E    RMSDP     MaxDP     DIISErr   Damp  Time(sec)
-------------------------------------------------------------------------------------------
               ***  Starting incremental Fock matrix formation  ***
    1    -1665.7518129075326669     0.00e+00  4.47e-02  4.08e+00  2.87e-01  0.700  10.2
    2    -1665.9353403987645379    -1.84e-01  3.13e-02  2.44e+00  8.70e-02  0.700   8.9
                               ***Turning on AO-DIIS***
    3    -1665.9976316914887775    -6.23e-02  1.21e-02  1.09e+00  3.13e-02  0.700   8.7
    4    -1666.0364501819756242    -3.88e-02  2.42e-02  2.09e+00  2.13e-02  0.000   8.4
    5    -1666.1239031141756186    -8.75e-02  6.92e-03  5.15e-01  8.22e-03  0.000   8.6
                              *** Initializing SOSCF ***
---------------------------------------S-O-S-C-F--------------------------------------
Iteration    Energy (Eh)           Delta-E    RMSDP     MaxDP     MaxGrad    Time(sec)
--------------------------------------------------------------------------------------
    6    -1666.1247777882924765    -8.75e-04  1.98e-03  2.09e-01  3.23e-03     8.3
               *** Restarting incremental Fock matrix formation ***
    7    -1666.1248638790000314    -8.61e-05  1.17e-03  8.51e-02  5.53e-04     9.9
    8    -1666.1248151953084289     4.87e-05  5.41e-04  5.99e-02  1.18e-03     7.4
    9    -1666.1248835141329891    -6.83e-05  4.33e-04  3.82e-02  9.47e-05     7.0
   10    -1666.1248820214702846     1.49e-06  2.97e-04  2.97e-02  1.59e-04     6.9
   11    -1666.1248847706308425    -2.75e-06  3.04e-04  3.11e-02  5.33e-05     6.7
   12    -1666.1248844160802491     3.55e-07  1.26e-04  1.17e-02  9.24e-05     6.4
   13    -1666.1248849251867341    -5.09e-07  1.46e-04  1.09e-02  6.59e-06     6.3
   14    -1666.1248849150545084     1.01e-08  1.11e-04  9.16e-03  1.20e-05     5.9
   15    -1666.1248849488972610    -3.38e-08  3.00e-04  2.57e-02  1.87e-06     5.7
                  *** Gradient check signals convergence ***

               *****************************************************
               *                     SUCCESS                       *
               *           SCF CONVERGED AFTER  15 CYCLES          *
               *****************************************************

             **** ENERGY FILE WAS UPDATED (Diclofenac\Diclofenac_TPSS_6-311+G\Diclofenac_TPSS_6-311+G.orcainp.en.tmp) ****

----------------
TOTAL SCF ENERGY
----------------

Total Energy       :      -1666.12488494889726 Eh          -45337.56304 eV

Components:
Nuclear Repulsion  :       1645.21700487485873 Eh           44768.63070 eV
Electronic Energy  :      -3311.31777450311847 Eh          -90105.53752 eV
One Electron Energy:      -5553.25441601616603 Eh         -151111.73503 eV
Two Electron Energy:       2241.93664151304756 Eh           61006.19751 eV
CPCM Dielectric    :         -0.02411532063740 Eh              -0.65621 eV

Virial components:
Potential Energy   :      -3327.39555850771421 Eh          -90543.03627 eV
Kinetic Energy     :       1661.27067355881695 Eh           45205.47323 eV
Virial Ratio       :          2.00292198704723

DFT components:
N(Alpha)           :       76.000003759439 electrons
N(Beta)            :       76.000003759439 electrons
N(Total)           :      152.000007518878 electrons
E(X)               :     -155.639226628576 Eh       
E(C)               :       -5.327223481321 Eh       
E(XC)              :     -160.966450109897 Eh       

CPCM Solvation Model Properties:
Surface-charge          :         -0.03103924909918
Corrected charge        :         -0.00000000000000
Outlying charge corr.   :          0.00005384407482 Eh               0.00147 eV
Free-energy (cav+disp)  :  This term is not implemented in the current solvation scheme

---------------
SCF CONVERGENCE
---------------

  Last Energy change         ...    3.3843e-08  Tolerance :   1.0000e-08
  Last MAX-Density change    ...    2.5738e-02  Tolerance :   1.0000e-07
  Last RMS-Density change    ...    3.0018e-04  Tolerance :   5.0000e-09
  Last DIIS Error            ...    3.2322e-03  Tolerance :   5.0000e-07
  Last Orbital Gradient      ...    1.8654e-06  Tolerance :   1.0000e-05
  Last Orbital Rotation      ...    9.2291e-06  Tolerance :   1.0000e-05


----------------
ORBITAL ENERGIES
----------------

  NO   OCC          E(Eh)            E(eV) 
   0   2.0000    -101.035055     -2749.3036 
   1   2.0000    -101.030545     -2749.1809 
   2   2.0000     -18.933895      -515.2175 
   3   2.0000     -18.884433      -513.8715 
   4   2.0000     -14.141843      -384.8191 
   5   2.0000     -10.127815      -275.5919 
   6   2.0000     -10.065111      -273.8856 
   7   2.0000     -10.064651      -273.8731 
   8   2.0000     -10.064304      -273.8636 
   9   2.0000     -10.042674      -273.2750 
  10   2.0000     -10.013751      -272.4880 
  11   2.0000     -10.009723      -272.3784 
  12   2.0000     -10.009354      -272.3684 
  13   2.0000     -10.008520      -272.3457 
  14   2.0000     -10.002760      -272.1889 
  15   2.0000      -9.997150      -272.0363 
  16   2.0000      -9.995790      -271.9993 
  17   2.0000      -9.993527      -271.9377 
  18   2.0000      -9.990724      -271.8614 
  19   2.0000      -9.272038      -252.3050 
  20   2.0000      -9.267671      -252.1861 
  21   2.0000      -7.054188      -191.9542 
  22   2.0000      -7.049949      -191.8389 
  23   2.0000      -7.043310      -191.6582 
  24   2.0000      -7.043088      -191.6522 
  25   2.0000      -7.039037      -191.5419 
  26   2.0000      -7.038448      -191.5259 
  27   2.0000      -1.038118       -28.2486 
  28   2.0000      -0.962064       -26.1791 
  29   2.0000      -0.906194       -24.6588 
  30   2.0000      -0.845904       -23.0182 
  31   2.0000      -0.832296       -22.6479 
  32   2.0000      -0.800884       -21.7932 
  33   2.0000      -0.778011       -21.1708 
  34   2.0000      -0.740541       -20.1512 
  35   2.0000      -0.712167       -19.3790 
  36   2.0000      -0.685036       -18.6408 
  37   2.0000      -0.681540       -18.5457 
  38   2.0000      -0.661795       -18.0084 
  39   2.0000      -0.587706       -15.9923 
  40   2.0000      -0.581777       -15.8309 
  41   2.0000      -0.576006       -15.6739 
  42   2.0000      -0.558028       -15.1847 
  43   2.0000      -0.546591       -14.8735 
  44   2.0000      -0.499922       -13.6036 
  45   2.0000      -0.492806       -13.4099 
  46   2.0000      -0.478518       -13.0211 
  47   2.0000      -0.461402       -12.5554 
  48   2.0000      -0.451529       -12.2867 
  49   2.0000      -0.443431       -12.0664 
  50   2.0000      -0.429002       -11.6737 
  51   2.0000      -0.423111       -11.5134 
  52   2.0000      -0.416860       -11.3433 
  53   2.0000      -0.410610       -11.1733 
  54   2.0000      -0.409466       -11.1421 
  55   2.0000      -0.401699       -10.9308 
  56   2.0000      -0.385486       -10.4896 
  57   2.0000      -0.372262       -10.1298 
  58   2.0000      -0.367002        -9.9866 
  59   2.0000      -0.359167        -9.7734 
  60   2.0000      -0.351123        -9.5546 
  61   2.0000      -0.344426        -9.3723 
  62   2.0000      -0.340679        -9.2703 
  63   2.0000      -0.338910        -9.2222 
  64   2.0000      -0.320555        -8.7228 
  65   2.0000      -0.318045        -8.6545 
  66   2.0000      -0.301348        -8.2001 
  67   2.0000      -0.299946        -8.1619 
  68   2.0000      -0.296086        -8.0569 
  69   2.0000      -0.295366        -8.0373 
  70   2.0000      -0.288139        -7.8407 
  71   2.0000      -0.258298        -7.0286 
  72   2.0000      -0.240023        -6.5314 
  73   2.0000      -0.230538        -6.2733 
  74   2.0000      -0.228906        -6.2289 
  75   2.0000      -0.201870        -5.4932 
  76   0.0000      -0.061634        -1.6772 
  77   0.0000      -0.059704        -1.6246 
  78   0.0000      -0.053051        -1.4436 
  79   0.0000      -0.043290        -1.1780 
  80   0.0000      -0.030363        -0.8262 
  81   0.0000      -0.028829        -0.7845 
  82   0.0000      -0.007086        -0.1928 
  83   0.0000       0.003876         0.1055 
  84   0.0000       0.006846         0.1863 
  85   0.0000       0.010875         0.2959 
  86   0.0000       0.019455         0.5294 
*Only the first 10 virtual orbitals were printed.

                    ********************************
                    * MULLIKEN POPULATION ANALYSIS *
                    ********************************

-----------------------
MULLIKEN ATOMIC CHARGES
-----------------------
   0 O :   -0.216564
   1 C :    0.021192
   2 O :   -0.323980
   3 C :   -0.750428
   4 C :    1.330729
   5 C :   -0.497978
   6 C :   -0.046435
   7 C :   -0.257546
   8 C :   -0.155798
   9 C :   -1.003494
  10 N :    0.415934
  11 C :   -4.465277
  12 C :    2.322202
  13 Cl:    0.188695
  14 C :   -0.459318
  15 C :    0.029786
  16 C :   -0.676495
  17 C :    1.914864
  18 Cl:    0.298680
  19 H :    0.366506
  20 H :    0.230946
  21 H :    0.259493
  22 H :    0.166840
  23 H :    0.160816
  24 H :    0.162044
  25 H :    0.192616
  26 H :    0.239714
  27 H :    0.188348
  28 H :    0.174970
  29 H :    0.188939
Sum of atomic charges:   -0.0000000

--------------------------------
MULLIKEN REDUCED ORBITAL CHARGES
--------------------------------
  0 O s       :     3.702470  s :     3.702470
      pz      :     1.583830  p :     4.502013
      px      :     1.666468
      py      :     1.251715
      dz2     :     0.001486  d :     0.012081
      dxz     :     0.002019
      dyz     :     0.005432
      dx2y2   :     0.001581
      dxy     :     0.001563

  1 C s       :     3.305432  s :     3.305432
      pz      :     0.900545  p :     2.479564
      px      :     0.858877
      py      :     0.720142
      dz2     :     0.048047  d :     0.193812
      dxz     :     0.019017
      dyz     :     0.051975
      dx2y2   :     0.038219
      dxy     :     0.036554

  2 O s       :     3.867074  s :     3.867074
      pz      :     1.641044  p :     4.442006
      px      :     1.386794
      py      :     1.414168
      dz2     :     0.002021  d :     0.014900
      dxz     :     0.001529
      dyz     :     0.004333
      dx2y2   :     0.003396
      dxy     :     0.003621

  3 C s       :     3.748577  s :     3.748577
      pz      :     0.914055  p :     2.945816
      px      :     0.800667
      py      :     1.231095
      dz2     :     0.014871  d :     0.056034
      dxz     :     0.012024
      dyz     :     0.007418
      dx2y2   :     0.010481
      dxy     :     0.011240

  4 C s       :     2.043955  s :     2.043955
      pz      :     1.010186  p :     2.555915
      px      :     0.287046
      py      :     1.258683
      dz2     :     0.004666  d :     0.069402
      dxz     :     0.009175
      dyz     :     0.011174
      dx2y2   :     0.022619
      dxy     :     0.021767

  5 C s       :     3.751595  s :     3.751595
      pz      :     1.000225  p :     2.688356
      px      :     0.731125
      py      :     0.957006
      dz2     :     0.003627  d :     0.058027
      dxz     :     0.010263
      dyz     :     0.005337
      dx2y2   :     0.019067
      dxy     :     0.019732

  6 C s       :     3.248586  s :     3.248586
      pz      :     0.968347  p :     2.738519
      px      :     0.857872
      py      :     0.912301
      dz2     :     0.004194  d :     0.059330
      dxz     :     0.008225
      dyz     :     0.006695
      dx2y2   :     0.017247
      dxy     :     0.022968

  7 C s       :     3.459695  s :     3.459695
      pz      :     0.968914  p :     2.738075
      px      :     1.037038
      py      :     0.732123
      dz2     :     0.003735  d :     0.059777
      dxz     :     0.004681
      dyz     :     0.010990
      dx2y2   :     0.022648
      dxy     :     0.017722

  8 C s       :     3.128863  s :     3.128863
      pz      :     1.017461  p :     2.970511
      px      :     0.964462
      py      :     0.988588
      dz2     :     0.003941  d :     0.056424
      dxz     :     0.010056
      dyz     :     0.005534
      dx2y2   :     0.020264
      dxy     :     0.016628

  9 C s       :     3.258540  s :     3.258540
      pz      :     1.040209  p :     3.652696
      px      :     1.391309
      py      :     1.221177
      dz2     :     0.006188  d :     0.092259
      dxz     :     0.013879
      dyz     :     0.014770
      dx2y2   :     0.026797
      dxy     :     0.030625

 10 N s       :     3.137681  s :     3.137681
      pz      :     1.278222  p :     3.417446
      px      :     1.278593
      py      :     0.860631
      dz2     :     0.005661  d :     0.028940
      dxz     :     0.004572
      dyz     :     0.004480
      dx2y2   :     0.006112
      dxy     :     0.008115

 11 C s       :     4.624401  s :     4.624401
      pz      :     2.975754  p :     5.752261
      px      :     1.606654
      py      :     1.169853
      dz2     :     0.016356  d :     0.088615
      dxz     :     0.009869
      dyz     :     0.026557
      dx2y2   :     0.017363
      dxy     :     0.018469

 12 C s       :     1.346567  s :     1.346567
      pz      :     1.465888  p :     2.249520
      px      :     0.848613
      py      :    -0.064982
      dz2     :     0.018081  d :     0.081711
      dxz     :     0.012379
      dyz     :     0.022892
      dx2y2   :     0.014079
      dxy     :     0.014280

 13 Cls       :     5.738492  s :     5.738492
      pz      :     3.501328  p :    11.041306
      px      :     3.874638
      py      :     3.665339
      dz2     :     0.008075  d :     0.031508
      dxz     :     0.005609
      dyz     :     0.011167
      dx2y2   :     0.002522
      dxy     :     0.004136

 14 C s       :     3.716575  s :     3.716575
      pz      :     0.946174  p :     2.684961
      px      :     1.009570
      py      :     0.729217
      dz2     :     0.010656  d :     0.057782
      dxz     :     0.009210
      dyz     :     0.013308
      dx2y2   :     0.012413
      dxy     :     0.012195

 15 C s       :     3.182408  s :     3.182408
      pz      :     0.855605  p :     2.729053
      px      :     0.931370
      py      :     0.942078
      dz2     :     0.014775  d :     0.058753
      dxz     :     0.009355
      dyz     :     0.012330
      dx2y2   :     0.011516
      dxy     :     0.010778

 16 C s       :     3.927870  s :     3.927870
      pz      :     0.965042  p :     2.690771
      px      :     0.878342
      py      :     0.847387
      dz2     :     0.010189  d :     0.057854
      dxz     :     0.007160
      dyz     :     0.014945
      dx2y2   :     0.012454
      dxy     :     0.013106

 17 C s       :     1.497278  s :     1.497278
      pz      :     1.433919  p :     2.506425
      px      :     1.085890
      py      :    -0.013384
      dz2     :     0.015859  d :     0.081434
      dxz     :     0.013009
      dyz     :     0.020246
      dx2y2   :     0.015787
      dxy     :     0.016533

 18 Cls       :     5.634423  s :     5.634423
      pz      :     3.536161  p :    11.035090
      px      :     3.591367
      py      :     3.907562
      dz2     :     0.007101  d :     0.031807
      dxz     :     0.011745
      dyz     :     0.004530
      dx2y2   :     0.005122
      dxy     :     0.003309

 19 H s       :     0.571076  s :     0.571076
      pz      :     0.019803  p :     0.062417
      px      :     0.018681
      py      :     0.023933

 20 H s       :     0.747495  s :     0.747495
      pz      :     0.005387  p :     0.021559
      px      :     0.004864
      py      :     0.011309

 21 H s       :     0.718121  s :     0.718121
      pz      :     0.006214  p :     0.022385
      px      :     0.007573
      py      :     0.008599

 22 H s       :     0.808879  s :     0.808879
      pz      :     0.006022  p :     0.024281
      px      :     0.005337
      py      :     0.012922

 23 H s       :     0.814931  s :     0.814931
      pz      :     0.005741  p :     0.024253
      px      :     0.008234
      py      :     0.010278

 24 H s       :     0.813726  s :     0.813726
      pz      :     0.005884  p :     0.024230
      px      :     0.013820
      py      :     0.004527

 25 H s       :     0.782690  s :     0.782690
      pz      :     0.006134  p :     0.024694
      px      :     0.005770
      py      :     0.012790

 26 H s       :     0.717177  s :     0.717177
      pz      :     0.019246  p :     0.043109
      px      :     0.015618
      py      :     0.008246

 27 H s       :     0.786980  s :     0.786980
      pz      :     0.010057  p :     0.024672
      px      :     0.009310
      py      :     0.005304

 28 H s       :     0.800497  s :     0.800497
      pz      :     0.004744  p :     0.024534
      px      :     0.006358
      py      :     0.013431

 29 H s       :     0.786320  s :     0.786320
      pz      :     0.009659  p :     0.024741
      px      :     0.006134
      py      :     0.008948



                     *******************************
                     * LOEWDIN POPULATION ANALYSIS *
                     *******************************

----------------------
LOEWDIN ATOMIC CHARGES
----------------------
   0 O :   -0.058245
   1 C :    0.002808
   2 O :   -0.222420
   3 C :   -0.063036
   4 C :   -0.103035
   5 C :   -0.046800
   6 C :   -0.065713
   7 C :   -0.056137
   8 C :   -0.059868
   9 C :   -0.089245
  10 N :   -0.106107
  11 C :   -0.108220
  12 C :   -0.260344
  13 Cl:    0.290059
  14 C :   -0.074800
  15 C :   -0.056862
  16 C :   -0.073447
  17 C :   -0.256155
  18 Cl:    0.267546
  19 H :    0.151798
  20 H :    0.104924
  21 H :    0.110450
  22 H :    0.094039
  23 H :    0.080689
  24 H :    0.082392
  25 H :    0.100136
  26 H :    0.135124
  27 H :    0.096209
  28 H :    0.088188
  29 H :    0.096071

-------------------------------
LOEWDIN REDUCED ORBITAL CHARGES
-------------------------------
  0 O s       :     3.398723  s :     3.398723
      pz      :     1.644518  p :     4.640943
      px      :     1.661330
      py      :     1.335095
      dz2     :     0.001686  d :     0.018580
      dxz     :     0.002007
      dyz     :     0.008816
      dx2y2   :     0.003535
      dxy     :     0.002537

  1 C s       :     2.780283  s :     2.780283
      pz      :     1.049524  p :     2.804885
      px      :     0.795240
      py      :     0.960121
      dz2     :     0.095117  d :     0.412024
      dxz     :     0.037959
      dyz     :     0.119769
      dx2y2   :     0.084818
      dxy     :     0.074361

  2 O s       :     3.523046  s :     3.523046
      pz      :     1.690640  p :     4.676880
      px      :     1.432172
      py      :     1.554069
      dz2     :     0.002626  d :     0.022494
      dxz     :     0.002223
      dyz     :     0.007588
      dx2y2   :     0.004891
      dxy     :     0.005165

  3 C s       :     2.770543  s :     2.770543
      pz      :     1.026267  p :     3.168493
      px      :     1.045012
      py      :     1.097214
      dz2     :     0.036490  d :     0.123999
      dxz     :     0.025207
      dyz     :     0.016320
      dx2y2   :     0.023626
      dxy     :     0.022357

  4 C s       :     2.780108  s :     2.780108
      pz      :     0.983243  p :     3.161484
      px      :     1.067875
      py      :     1.110366
      dz2     :     0.011872  d :     0.161443
      dxz     :     0.018698
      dyz     :     0.022765
      dx2y2   :     0.054651
      dxy     :     0.053457

  5 C s       :     2.790803  s :     2.790803
      pz      :     0.960721  p :     3.123502
      px      :     1.105494
      py      :     1.057286
      dz2     :     0.008509  d :     0.132495
      dxz     :     0.020971
      dyz     :     0.009859
      dx2y2   :     0.045908
      dxy     :     0.047249

  6 C s       :     2.795651  s :     2.795651
      pz      :     0.964702  p :     3.135482
      px      :     1.087855
      py      :     1.082925
      dz2     :     0.009590  d :     0.134580
      dxz     :     0.016667
      dyz     :     0.013100
      dx2y2   :     0.043645
      dxy     :     0.051578

  7 C s       :     2.795945  s :     2.795945
      pz      :     0.955798  p :     3.124966
      px      :     1.060872
      py      :     1.108296
      dz2     :     0.008721  d :     0.135225
      dxz     :     0.008064
      dyz     :     0.022923
      dx2y2   :     0.051186
      dxy     :     0.044331

  8 C s       :     2.784649  s :     2.784649
      pz      :     0.983471  p :     3.145326
      px      :     1.081034
      py      :     1.080821
      dz2     :     0.009152  d :     0.129893
      dxz     :     0.021148
      dyz     :     0.009910
      dx2y2   :     0.047766
      dxy     :     0.041918

  9 C s       :     2.762017  s :     2.762017
      pz      :     0.999474  p :     3.115465
      px      :     1.087330
      py      :     1.028661
      dz2     :     0.015828  d :     0.211764
      dxz     :     0.028056
      dyz     :     0.030443
      dx2y2   :     0.063837
      dxy     :     0.073600

 10 N s       :     3.040315  s :     3.040315
      pz      :     1.446112  p :     4.009120
      px      :     1.373396
      py      :     1.189612
      dz2     :     0.009608  d :     0.056671
      dxz     :     0.007770
      dyz     :     0.007991
      dx2y2   :     0.014014
      dxy     :     0.017289

 11 C s       :     2.770016  s :     2.770016
      pz      :     1.088493  p :     3.132548
      px      :     1.041090
      py      :     1.002965
      dz2     :     0.037281  d :     0.205657
      dxz     :     0.025337
      dyz     :     0.060048
      dx2y2   :     0.041043
      dxy     :     0.041948

 12 C s       :     2.829651  s :     2.829651
      pz      :     1.054274  p :     3.242099
      px      :     1.086106
      py      :     1.101719
      dz2     :     0.041344  d :     0.188594
      dxz     :     0.029863
      dyz     :     0.053409
      dx2y2   :     0.032614
      dxy     :     0.031365

 13 Cls       :     5.620607  s :     5.620607
      pz      :     3.503967  p :    11.054362
      px      :     3.850241
      py      :     3.700154
      dz2     :     0.008852  d :     0.034972
      dxz     :     0.006144
      dyz     :     0.012667
      dx2y2   :     0.002784
      dxy     :     0.004525

 14 C s       :     2.797211  s :     2.797211
      pz      :     1.055693  p :     3.143736
      px      :     1.003403
      py      :     1.084640
      dz2     :     0.023450  d :     0.133853
      dxz     :     0.018293
      dyz     :     0.033575
      dx2y2   :     0.029889
      dxy     :     0.028645

 15 C s       :     2.795517  s :     2.795517
      pz      :     1.054925  p :     3.127794
      px      :     1.016333
      py      :     1.056536
      dz2     :     0.031672  d :     0.133552
      dxz     :     0.024228
      dyz     :     0.030406
      dx2y2   :     0.024286
      dxy     :     0.022960

 16 C s       :     2.796805  s :     2.796805
      pz      :     1.050047  p :     3.142833
      px      :     1.029137
      py      :     1.063648
      dz2     :     0.022247  d :     0.133809
      dxz     :     0.017858
      dyz     :     0.032862
      dx2y2   :     0.030233
      dxy     :     0.030609

 17 C s       :     2.833140  s :     2.833140
      pz      :     1.037324  p :     3.233915
      px      :     1.055111
      py      :     1.141479
      dz2     :     0.035052  d :     0.189100
      dxz     :     0.032595
      dyz     :     0.047155
      dx2y2   :     0.036041
      dxy     :     0.038258

 18 Cls       :     5.635502  s :     5.635502
      pz      :     3.576926  p :    11.061604
      px      :     3.631024
      py      :     3.853655
      dz2     :     0.007665  d :     0.035348
      dxz     :     0.013240
      dyz     :     0.005064
      dx2y2   :     0.005691
      dxy     :     0.003688

 19 H s       :     0.663482  s :     0.663482
      pz      :     0.067718  p :     0.184719
      px      :     0.051910
      py      :     0.065091

 20 H s       :     0.827098  s :     0.827098
      pz      :     0.016000  p :     0.067978
      px      :     0.014348
      py      :     0.037631

 21 H s       :     0.817440  s :     0.817440
      pz      :     0.019839  p :     0.072110
      px      :     0.025056
      py      :     0.027215

 22 H s       :     0.835825  s :     0.835825
      pz      :     0.015377  p :     0.070136
      px      :     0.015078
      py      :     0.039681

 23 H s       :     0.848889  s :     0.848889
      pz      :     0.014440  p :     0.070422
      px      :     0.024649
      py      :     0.031334

 24 H s       :     0.847452  s :     0.847452
      pz      :     0.014787  p :     0.070155
      px      :     0.042608
      py      :     0.012760

 25 H s       :     0.827763  s :     0.827763
      pz      :     0.015929  p :     0.072101
      px      :     0.016871
      py      :     0.039300

 26 H s       :     0.730373  s :     0.730373
      pz      :     0.068595  p :     0.134504
      px      :     0.046006
      py      :     0.019902

 27 H s       :     0.833220  s :     0.833220
      pz      :     0.029569  p :     0.070571
      px      :     0.026721
      py      :     0.014280

 28 H s       :     0.841286  s :     0.841286
      pz      :     0.012536  p :     0.070526
      px      :     0.017077
      py      :     0.040913

 29 H s       :     0.833185  s :     0.833185
      pz      :     0.028257  p :     0.070744
      px      :     0.016293
      py      :     0.026195



                      *****************************
                      * MAYER POPULATION ANALYSIS *
                      *****************************

  NA   - Mulliken gross atomic population
  ZA   - Total nuclear charge
  QA   - Mulliken gross atomic charge
  VA   - Mayer's total valence
  BVA  - Mayer's bonded valence
  FA   - Mayer's free valence

  ATOM       NA         ZA         QA         VA         BVA        FA
  0 O      8.2166     8.0000    -0.2166     1.9767     1.9767    -0.0000
  1 C      5.9788     6.0000     0.0212     4.0760     4.0760    -0.0000
  2 O      8.3240     8.0000    -0.3240     1.9418     1.9418     0.0000
  3 C      6.7504     6.0000    -0.7504     3.0831     3.0831    -0.0000
  4 C      4.6693     6.0000     1.3307     1.7701     1.7701     0.0000
  5 C      6.4980     6.0000    -0.4980     2.9412     2.9412     0.0000
  6 C      6.0464     6.0000    -0.0464     3.4076     3.4076    -0.0000
  7 C      6.2575     6.0000    -0.2575     3.3564     3.3564    -0.0000
  8 C      6.1558     6.0000    -0.1558     4.2691     4.2691    -0.0000
  9 C      7.0035     6.0000    -1.0035     6.1390     6.1390     0.0000
 10 N      6.5841     7.0000     0.4159     1.7496     1.7496     0.0000
 11 C     10.4653     6.0000    -4.4653     4.6310     4.6310     0.0000
 12 C      3.6778     6.0000     2.3222    -1.2860    -1.2860    -0.0000
 13 Cl    16.8113    17.0000     0.1887     1.2051     1.2051     0.0000
 14 C      6.4593     6.0000    -0.4593     3.7598     3.7598     0.0000
 15 C      5.9702     6.0000     0.0298     3.2415     3.2415    -0.0000
 16 C      6.6765     6.0000    -0.6765     4.4539     4.4539    -0.0000
 17 C      4.0851     6.0000     1.9149    -0.5030    -0.5030    -0.0000
 18 Cl    16.7013    17.0000     0.2987     1.1444     1.1444     0.0000
 19 H      0.6335     1.0000     0.3665     0.9481     0.9481     0.0000
 20 H      0.7691     1.0000     0.2309     0.9232     0.9232    -0.0000
 21 H      0.7405     1.0000     0.2595     0.9154     0.9154    -0.0000
 22 H      0.8332     1.0000     0.1668     0.9543     0.9543    -0.0000
 23 H      0.8392     1.0000     0.1608     0.9504     0.9504    -0.0000
 24 H      0.8380     1.0000     0.1620     0.9515     0.9515    -0.0000
 25 H      0.8074     1.0000     0.1926     0.9439     0.9439     0.0000
 26 H      0.7603     1.0000     0.2397     1.0201     1.0201     0.0000
 27 H      0.8117     1.0000     0.1883     0.9408     0.9408    -0.0000
 28 H      0.8250     1.0000     0.1750     0.9479     0.9479    -0.0000
 29 H      0.8111     1.0000     0.1889     0.9375     0.9375    -0.0000

  Mayer bond orders larger than 0.100000
B(  0-O ,  1-C ) :   1.1986 B(  0-O ,  5-C ) :  -0.1917 B(  0-O ,  8-C ) :   0.1163 
B(  0-O , 19-H ) :   0.7847 B(  1-C ,  2-O ) :   1.9618 B(  1-C ,  3-C ) :   0.9669 
B(  1-C ,  4-C ) :  -0.1705 B(  2-O ,  3-C ) :   0.1150 B(  2-O ,  4-C ) :  -0.1577 
B(  3-C ,  4-C ) :  -0.1434 B(  3-C ,  5-C ) :  -0.4228 B(  3-C ,  9-C ) :   0.5790 
B(  3-C , 10-N ) :  -0.1120 B(  3-C , 11-C ) :  -0.3261 B(  3-C , 14-C ) :  -0.2691 
B(  3-C , 17-C ) :   0.5501 B(  3-C , 20-H ) :   1.0369 B(  3-C , 21-H ) :   1.1475 
B(  4-C ,  5-C ) :   0.7588 B(  4-C ,  6-C ) :  -0.2979 B(  4-C ,  7-C ) :   0.3283 
B(  4-C ,  8-C ) :   0.4456 B(  4-C ,  9-C ) :   1.9527 B(  4-C , 10-N ) :  -0.6478 
B(  4-C , 11-C ) :  -0.2937 B(  4-C , 12-C ) :  -1.0336 B(  4-C , 13-Cl) :   0.2587 
B(  4-C , 14-C ) :   1.4424 B(  4-C , 15-C ) :   0.1770 B(  4-C , 16-C ) :   0.1400 
B(  4-C , 17-C ) :  -0.3990 B(  4-C , 20-H ) :  -0.1292 B(  4-C , 21-H ) :  -0.2805 
B(  4-C , 22-H ) :  -0.2143 B(  4-C , 25-H ) :   0.1024 B(  4-C , 26-H ) :  -0.1404 
B(  5-C ,  6-C ) :   1.2337 B(  5-C ,  7-C ) :   0.1607 B(  5-C ,  8-C ) :  -0.2092 
B(  5-C ,  9-C ) :   0.8397 B(  5-C , 11-C ) :  -0.1714 B(  5-C , 12-C ) :   0.1727 
B(  5-C , 13-Cl) :  -0.1075 B(  5-C , 14-C ) :   0.3299 B(  5-C , 17-C ) :  -0.2339 
[...]
      dxz     :     0.029832
      dyz     :     0.030509
      dx2y2   :     0.056163
      dxy     :     0.073115

 10 N s       :     3.041049  s :     3.041049
      pz      :     1.525140  p :     3.996915
      px      :     1.274190
      py      :     1.197584
      dz2     :     0.005717  d :     0.057413
      dxz     :     0.009627
      dyz     :     0.008168
      dx2y2   :     0.016213
      dxy     :     0.017688

 11 C s       :     2.765678  s :     2.765678
      pz      :     1.101683  p :     3.150293
      px      :     1.041890
      py      :     1.006721
      dz2     :     0.039683  d :     0.210908
      dxz     :     0.028188
      dyz     :     0.066670
      dx2y2   :     0.038211
      dxy     :     0.038156

 12 C s       :     2.833498  s :     2.833498
      pz      :     1.035400  p :     3.212943
      px      :     1.072997
      py      :     1.104546
      dz2     :     0.039325  d :     0.184988
      dxz     :     0.027442
      dyz     :     0.056063
      dx2y2   :     0.031526
      dxy     :     0.030632

 13 Cls       :     5.632456  s :     5.632456
      pz      :     3.519374  p :    11.061284
      px      :     3.855510
      py      :     3.686400
      dz2     :     0.007551  d :     0.031697
      dxz     :     0.005280
      dyz     :     0.012092
      dx2y2   :     0.002593
      dxy     :     0.004180

 14 C s       :     2.795864  s :     2.795864
      pz      :     1.062248  p :     3.140474
      px      :     0.993795
      py      :     1.084431
      dz2     :     0.026368  d :     0.132594
      dxz     :     0.016702
      dyz     :     0.034776
      dx2y2   :     0.027886
      dxy     :     0.026861

 15 C s       :     2.797348  s :     2.797348
      pz      :     1.060734  p :     3.111155
      px      :     0.992685
      py      :     1.057736
      dz2     :     0.034603  d :     0.132005
      dxz     :     0.023751
      dyz     :     0.033391
      dx2y2   :     0.021793
      dxy     :     0.018467

 16 C s       :     2.796013  s :     2.796013
      pz      :     1.061094  p :     3.140215
      px      :     1.008707
      py      :     1.070414
      dz2     :     0.026091  d :     0.132744
      dxz     :     0.016346
      dyz     :     0.035335
      dx2y2   :     0.027906
      dxy     :     0.027066

 17 C s       :     2.836940  s :     2.836940
      pz      :     1.025693  p :     3.206305
      px      :     1.042590
      py      :     1.138022
      dz2     :     0.037953  d :     0.184508
      dxz     :     0.029850
      dyz     :     0.051879
      dx2y2   :     0.030846
      dxy     :     0.033980

 18 Cls       :     5.650335  s :     5.650335
      pz      :     3.535425  p :    11.074309
      px      :     3.706697
      py      :     3.832187
      dz2     :     0.007311  d :     0.031522
      dxz     :     0.011000
      dyz     :     0.006180
      dx2y2   :     0.003758
      dxy     :     0.003272

 19 H s       :     0.660810  s :     0.660810
      pz      :     0.099829  p :     0.213619
      px      :     0.058115
      py      :     0.055675

 20 H s       :     0.829327  s :     0.829327
      pz      :     0.012664  p :     0.069099
      px      :     0.013335
      py      :     0.043101

 21 H s       :     0.817477  s :     0.817477
      pz      :     0.024891  p :     0.071329
      px      :     0.024895
      py      :     0.021542

 22 H s       :     0.839039  s :     0.839039
      pz      :     0.014704  p :     0.070347
      px      :     0.015528
      py      :     0.040114

 23 H s       :     0.848094  s :     0.848094
      pz      :     0.014708  p :     0.070617
      px      :     0.024365
      py      :     0.031544

 24 H s       :     0.847021  s :     0.847021
      pz      :     0.015655  p :     0.070245
      px      :     0.041814
      py      :     0.012775

 25 H s       :     0.824840  s :     0.824840
      pz      :     0.015478  p :     0.072855
      px      :     0.015803
      py      :     0.041574

 26 H s       :     0.727471  s :     0.727471
      pz      :     0.059602  p :     0.134671
      px      :     0.055897
      py      :     0.019171

 27 H s       :     0.831260  s :     0.831260
      pz      :     0.032235  p :     0.071147
      px      :     0.023926
      py      :     0.014985

 28 H s       :     0.839769  s :     0.839769
      pz      :     0.012173  p :     0.070793
      px      :     0.015960
      py      :     0.042660

 29 H s       :     0.831330  s :     0.831330
      pz      :     0.031497  p :     0.071287
      px      :     0.016082
      py      :     0.023708



                      *****************************
                      * MAYER POPULATION ANALYSIS *
                      *****************************

  NA   - Mulliken gross atomic population
  ZA   - Total nuclear charge
  QA   - Mulliken gross atomic charge
  VA   - Mayer's total valence
  BVA  - Mayer's bonded valence
  FA   - Mayer's free valence

  ATOM       NA         ZA         QA         VA         BVA        FA
  0 O      8.2453     8.0000    -0.2453     2.0020     2.0020    -0.0000
  1 C      5.9547     6.0000     0.0453     4.0487     4.0487    -0.0000
  2 O      8.3506     8.0000    -0.3506     1.9306     1.9306    -0.0000
  3 C      6.7927     6.0000    -0.7927     3.0583     3.0583     0.0000
  4 C      4.1505     6.0000     1.8495     0.6779     0.6779    -0.0000
  5 C      6.4097     6.0000    -0.4097     2.4997     2.4997     0.0000
  6 C      5.9402     6.0000     0.0598     3.2874     3.2874    -0.0000
  7 C      6.3578     6.0000    -0.3578     3.4570     3.4570     0.0000
  8 C      6.7372     6.0000    -0.7372     5.0912     5.0912     0.0000
  9 C      6.9356     6.0000    -0.9356     5.1494     5.1494    -0.0000
 10 N      6.7608     7.0000     0.2392     1.7426     1.7426     0.0000
 11 C     10.0573     6.0000    -4.0573     5.6940     5.6940    -0.0000
 12 C      3.4976     6.0000     2.5024    -2.5097    -2.5097    -0.0000
 13 Cl    16.8141    17.0000     0.1859     1.2129     1.2129     0.0000
 14 C      6.1435     6.0000    -0.1435     3.4216     3.4216     0.0000
 15 C      5.8775     6.0000     0.1225     3.1995     3.1995    -0.0000
 16 C      6.6198     6.0000    -0.6198     4.2229     4.2229     0.0000
 17 C      5.0912     6.0000     0.9088     2.3838     2.3838     0.0000
 18 Cl    16.6942    17.0000     0.3058     1.1873     1.1873    -0.0000
 19 H      0.5790     1.0000     0.4210     0.8951     0.8951     0.0000
 20 H      0.7775     1.0000     0.2225     0.9297     0.9297     0.0000
 21 H      0.7305     1.0000     0.2695     0.9133     0.9133     0.0000
 22 H      0.8348     1.0000     0.1652     0.9547     0.9547     0.0000
 23 H      0.8369     1.0000     0.1631     0.9504     0.9504    -0.0000
 24 H      0.8350     1.0000     0.1650     0.9504     0.9504    -0.0000
 25 H      0.8011     1.0000     0.1989     0.9347     0.9347    -0.0000
 26 H      0.7346     1.0000     0.2654     1.0051     1.0051    -0.0000
 27 H      0.8116     1.0000     0.1884     0.9437     0.9437     0.0000
 28 H      0.8187     1.0000     0.1813     0.9466     0.9466     0.0000
 29 H      0.8101     1.0000     0.1899     0.9402     0.9402     0.0000

  Mayer bond orders larger than 0.100000
B(  0-O ,  1-C ) :   1.2330 B(  0-O , 10-N ) :   0.1242 B(  0-O , 11-C ) :   0.1143 
B(  0-O , 12-C ) :  -0.2438 B(  0-O , 17-C ) :   0.1539 B(  0-O , 19-H ) :   0.7046 
B(  1-C ,  2-O ) :   1.9247 B(  1-C ,  3-C ) :   0.9892 B(  1-C ,  4-C ) :  -0.1226 
B(  1-C ,  5-C ) :  -0.1931 B(  1-C ,  9-C ) :   0.2434 B(  1-C , 17-C ) :  -0.1014 
B(  2-O ,  3-C ) :   0.1221 B(  2-O ,  4-C ) :  -0.1277 B(  3-C ,  4-C ) :  -0.2170 
B(  3-C ,  5-C ) :  -0.6659 B(  3-C ,  9-C ) :   0.8279 B(  3-C , 10-N ) :  -0.1343 
B(  3-C , 11-C ) :  -0.2262 B(  3-C , 14-C ) :  -0.1821 B(  3-C , 17-C ) :   0.3929 
B(  3-C , 20-H ) :   1.0405 B(  3-C , 21-H ) :   1.1026 B(  4-C ,  5-C ) :   0.8684 
B(  4-C ,  6-C ) :  -0.2144 B(  4-C ,  7-C ) :   0.3090 B(  4-C ,  9-C ) :   1.4135 
B(  4-C , 10-N ) :  -0.5939 B(  4-C , 11-C ) :  -0.1191 B(  4-C , 12-C ) :  -0.3895 
B(  4-C , 14-C ) :   2.2794 B(  4-C , 15-C ) :   0.2396 B(  4-C , 16-C ) :   0.2150 
B(  4-C , 17-C ) :  -2.0628 B(  4-C , 18-Cl) :  -0.1510 B(  4-C , 21-H ) :  -0.1355 
B(  4-C , 22-H ) :  -0.2228 B(  4-C , 26-H ) :  -0.2653 B(  5-C ,  6-C ) :   1.2642 
B(  5-C ,  7-C ) :   0.1983 B(  5-C ,  8-C ) :  -0.3513 B(  5-C ,  9-C ) :   0.5461 
B(  5-C , 12-C ) :   0.1998 B(  5-C , 14-C ) :   0.4034 B(  5-C , 17-C ) :  -0.5125 
B(  5-C , 20-H ) :  -0.1683 B(  5-C , 22-H ) :   1.0858 B(  6-C ,  7-C ) :   1.3138 
B(  6-C ,  8-C ) :  -0.1351 B(  6-C , 23-H ) :   0.9975 B(  7-C ,  8-C ) :   0.9425 
B(  7-C , 11-C ) :   0.3847 B(  7-C , 13-Cl) :  -0.1306 B(  7-C , 14-C ) :  -0.3404 
B(  7-C , 15-C ) :  -0.1408 B(  7-C , 16-C ) :   0.2909 B(  7-C , 24-H ) :   1.0079 
B(  7-C , 25-H ) :  -0.1722 B(  8-C ,  9-C ) :   1.9614 B(  8-C , 10-N ) :  -0.2519 
B(  8-C , 11-C ) :   1.2161 B(  8-C , 12-C ) :  -0.5417 B(  8-C , 13-Cl) :   0.7488 
B(  8-C , 14-C ) :  -1.1795 B(  8-C , 15-C ) :  -0.1063 B(  8-C , 16-C ) :   0.1176 
B(  8-C , 17-C ) :   1.1555 B(  8-C , 18-Cl) :   0.2132 B(  8-C , 25-H ) :   1.0196 
B(  8-C , 26-H ) :   0.1620 B(  9-C , 10-N ) :   1.1512 B(  9-C , 11-C ) :  -0.9418 
B(  9-C , 12-C ) :   0.4378 B(  9-C , 13-Cl) :  -0.6673 B(  9-C , 14-C ) :  -1.3604 
B(  9-C , 16-C ) :  -0.4727 B(  9-C , 17-C ) :   1.5979 B(  9-C , 18-Cl) :  -0.1003 
B(  9-C , 19-H ) :  -0.1071 B(  9-C , 20-H ) :   0.1479 B(  9-C , 22-H ) :   0.1822 
B(  9-C , 26-H ) :   0.1951 B( 10-N , 11-C ) :   0.7570 B( 10-N , 14-C ) :   0.2740 
B( 10-N , 16-C ) :   0.1108 B( 10-N , 17-C ) :  -0.2184 B( 10-N , 18-Cl) :  -0.2816 
B( 10-N , 26-H ) :   0.8107 B( 11-C , 12-C ) :  -2.8633 B( 11-C , 13-Cl) :   2.5089 
B( 11-C , 14-C ) :  -2.0942 B( 11-C , 15-C ) :  -0.6029 B( 11-C , 16-C ) :   0.4438 
B( 11-C , 17-C ) :   3.2204 B( 11-C , 18-Cl) :   3.1220 B( 11-C , 26-H ) :   0.2016 
B( 11-C , 29-H ) :   0.2630 B( 12-C , 13-Cl) :  -2.0408 B( 12-C , 14-C ) :   2.3925 
B( 12-C , 15-C ) :   0.1483 B( 12-C , 16-C ) :  -0.6237 B( 12-C , 17-C ) :   0.9513 
B( 12-C , 18-Cl) :   0.5336 B( 12-C , 19-H ) :  -0.1795 B( 12-C , 26-H ) :   0.1117 
B( 12-C , 27-H ) :  -0.1240 B( 13-Cl, 14-C ) :   0.2484 B( 13-Cl, 16-C ) :   0.1913 
B( 13-Cl, 17-C ) :   0.2079 B( 14-C , 15-C ) :   1.2739 B( 14-C , 16-C ) :   0.7556 
B( 14-C , 17-C ) :  -0.2386 B( 14-C , 18-Cl) :   0.1858 B( 14-C , 27-H ) :   1.0174 
B( 15-C , 16-C ) :   1.0197 B( 15-C , 17-C ) :   0.2741 B( 15-C , 28-H ) :   0.9787 
B( 15-C , 29-H ) :  -0.1023 B( 16-C , 17-C ) :   0.8564 B( 16-C , 18-Cl) :   0.3759 
B( 16-C , 29-H ) :   1.0038 B( 17-C , 18-Cl) :  -3.0172 B( 17-C , 19-H ) :   0.1857 
B( 17-C , 26-H ) :  -0.2349 B( 17-C , 29-H ) :  -0.2155 B( 18-Cl, 26-H ) :   0.1085 


-------
TIMINGS
-------

Total SCF time: 0 days 0 hours 1 min 3 sec 

Total time                  ....      63.371 sec
Sum of individual times     ....      63.308 sec  ( 99.9%)

SCF preparation             ....       0.291 sec  (  0.5%)
Fock matrix formation       ....      62.506 sec  ( 98.6%)
  Startup                   ....       0.016 sec  (  0.0% of F)
  Split-RI-J                ....      10.139 sec  ( 16.2% of F)
  XC integration            ....      37.201 sec  ( 59.5% of F)
    Basis function eval.    ....       4.353 sec  ( 11.7% of XC)
    Density eval.           ....      15.788 sec  ( 42.4% of XC)
    XC-Functional eval.     ....       0.583 sec  (  1.6% of XC)
    XC-Potential eval.      ....      16.002 sec  ( 43.0% of XC)
  CPCM terms                ....      15.072 sec  ( 24.1% of F)
Diagonalization             ....       0.000 sec  (  0.0%)
Density matrix formation    ....       0.041 sec  (  0.1%)
Total Energy calculation    ....       0.019 sec  (  0.0%)
Population analysis         ....       0.051 sec  (  0.1%)
Orbital Transformation      ....       0.070 sec  (  0.1%)
Orbital Orthonormalization  ....       0.000 sec  (  0.0%)
DIIS solution               ....       0.116 sec  (  0.2%)
SOSCF solution              ....       0.214 sec  (  0.3%)
Finished LeanSCF after  63.5 sec

Maximum memory used throughout the entire LEANSCF-calculation: 103.7 MB

-------------------------   --------------------
FINAL SINGLE POINT ENERGY     -1666.137573393715
-------------------------   --------------------

                                *** OPTIMIZATION RUN DONE ***


------------------------------------------------------------------------------
                              ORCA PROPERTY CALCULATIONS
------------------------------------------------------------------------------

GBWName                                 ... Diclofenac\Diclofenac_TPSS_6-311+G\Diclofenac_TPSS_6-311+G.orcainp.gbw
Number of atoms                         ...     30
Number of basis functions               ...    500
Max core memory                         ...   1024 MB

Electric properties:
Dipole moment                           ... YES
Quadrupole moment                       ...  NO
Static polarizability (Dipole/Dipole)   ...  NO
Static polarizability (Dipole/Quad.)    ...  NO
Static polarizability (Quad./Quad.)     ...  NO
Static polarizability (Velocity)        ...  NO

Atomic electric properties:
Dipole moment                           ...  NO
Quadrupole moment                       ...  NO
Static polarizability                   ...  NO

Choice of electric origin               ... Center of mass
Position of electric origin             ...     9.235534     4.192890    -2.563775

General magnetic properties:
Magnetizability                         ...  NO

EPR properties:
g-Tensor (aka g-matrix)                 ...  NO
Zero-Field splitting spin-orbit         ...  NO
Zero-field splitting spin-spin          ...  NO
Hyperfine couplings                     ...  NO (   0 nuclei)
Quadrupole couplings                    ...  NO (   0 nuclei)
Contact density                         ...  NO (   0 nuclei)

NMR properties:
Chemical shifts                         ...  NO (   0 nuclei)
Spin-rotation constants                 ...  NO (   0 nuclei)
Spin-spin couplings                     ...  NO (   0 nuclei,    0 pairs)

Choice of magnetic origin               ... GIAO
Position of magnetic origin             ...     0.000000     0.000000     0.000000

Properties with geometric perturbations:
SCF Hessian                             ...  NO
IR spectrum                             ...  NO
VCD spectrum                            ...  NO
X-ray spectroscopy properties:
SCF XES/XAS/RIXS spectra                ...  NO


-------------
DIPOLE MOMENT
-------------

Method             : SCF
Type of density    : Electron Density
Multiplicity       :   1
Irrep              :   0
Energy             : -1666.1375733937154564 Eh
Relativity type    : 
Basis              : AO
                                X                 Y                 Z
Electronic contribution:     -3.528521204       8.929667071      -0.507714663
Nuclear contribution   :      4.952146351      -6.879789963       3.148775917
                        -----------------------------------------
Total Dipole Moment    :      1.423625147       2.049877108       2.641061254
                        -----------------------------------------
Magnitude (a.u.)       :      3.633718380
Magnitude (Debye)      :      9.236178110



--------------------
Rotational spectrum 
--------------------
 
Rotational constants in cm-1:             0.014072             0.007484             0.007364 
Rotational constants in MHz :           421.865455           224.365546           220.758385 

Dipole components along the rotational axes: 
x,y,z [a.u.] :     2.777191    -1.054450     2.092666 
x,y,z [Debye]:     7.059060    -2.680199     5.319135 

 

Dipole moment calculation done in   0.0 sec 

Maximum memory used throughout the entire PROP-calculation: 44.8 MB

--------------------------------
SUGGESTED CITATIONS FOR THIS RUN
--------------------------------

Below you find a list of papers that are relevant to this ORCA run
We neither can nor want to force you to cite these papers, but we appreciate if you do
You receive ORCA, which is the product of decades of hard work by many enthusiastic individuals, for free
The only thing we kindly ask in return is that you cite our papers,
We deeply appreciate it, if you show your appreciation for ORCA by not just citing the generic ORCA reference.

Please note that relegating all ORCA citations to the supporting information does *not* help us.
SI sections are not indexed - citations you put there will not count into any citation statistics
But we need these citations in order to attract the funding resources that allow us to do what we are doing

Therefore, if you are a happy ORCA user, please consider citing a few of the papers listed below in the main body of your paper

In addition to the list printed below, the program has created the file Diclofenac\Diclofenac_TPSS_6-311+G\Diclofenac_TPSS_6-311+G.orcainp.bibtex that contains the list in bibtex format
You can import this file easily into all common literature databanks and citation aid programs


List of essential papers. We consider these as the minimum necessary citations

  1. Neese,F.
     Software update: the ORCA program system, version 5.0
     WIRES Comput. Molec. Sci., 2022 12(1)e1606
     doi.org/10.1002/wcms.1606

List of papers to cite with high priority. The work reported in these papers was absolutely
necessary for this run to complete.
Our perspective: the developers of density functionals and basis sets usually get cited in chemistry papers
Good! But without the algorithms to do something with them, the functionals or basis sets would not do anything.
Hence, in our opinion, the algorithm design and method developments papers are equally worthy of getting cited

  1. Neese,F.
     An improvement of the resolution of the identity approximation for the formation of the Coulomb matrix
     J. Comp. Chem., 2003 24(14)1740-1747
     doi.org/10.1002/jcc.10318
  2. Garcia-Rates,M.; Neese,F.
     Effect of the Solute Cavity on the Solvation Energy and its Derivatives within the Framework of the Gaussian Charge Scheme
     J. Comput. Chem., 2020 41 922-939
     doi.org/10.1002/jcc.26139
  3. Neese,F.
     The SHARK Integral Generation and Digestion System
     J. Comp. Chem., 2022  1-16
     doi.org/10.1002/jcc.26942

List of suggested additional citations. These are papers that are important in the 'surrounding' of 
of this run, or papers that preceded the highly important papers. If you like your results we are grateful for a citation.

  1. Neese,F.
     The ORCA program system
     WIRES Comput. Molec. Sci., 2012 2(1)73-78
     doi.org/10.1002/wcms.81
  2. Neese,F.
     Software update: the ORCA program system, version 4.0
     WIRES Comput. Molec. Sci., 2018 8(1)1-6
     doi.org/10.1002/wcms.1327
  3. Neese,F.; Wennmohs,F.; Becker,U.; Riplinger,C.
     The ORCA quantum chemistry program package
     J. Chem. Phys., 2020 152 Art. No. L224108
     doi.org/10.1063/5.0004608

List of optional additional citations

  1. Neese,F.
     Approximate second-order SCF convergence for spin unrestricted wavefunctions
     Chem. Phys. Lett., 2000 325(1-3)93-98
     doi.org/10.1016/s0009-2614(00)00662-x

Timings for individual modules:

Sum of individual times          ...     1606.453 sec (=  26.774 min)
Startup calculation              ...       17.897 sec (=   0.298 min)   1.1 %
SCF iterations                   ...     1172.717 sec (=  19.545 min)  73.0 %
Property calculations            ...        0.123 sec (=   0.002 min)   0.0 %
SCF Gradient evaluation          ...      415.590 sec (=   6.926 min)  25.9 %
Geometry relaxation              ...        0.126 sec (=   0.002 min)   0.0 %
                             ****ORCA TERMINATED NORMALLY****
TOTAL RUN TIME: 0 days 0 hours 26 minutes 47 seconds 744 msec
