
                                 *****************
                                 * O   R   C   A *
                                 *****************

                                            #,                                       
                                            ###                                      
                                            ####                                     
                                            #####                                    
                                            ######                                   
                                           ########,                                 
                                     ,,################,,,,,                         
                               ,,#################################,,                 
                          ,,##########################################,,             
                       ,#########################################, ''#####,          
                    ,#############################################,,   '####,        
                  ,##################################################,,,,####,       
                ,###########''''           ''''###############################       
              ,#####''   ,,,,##########,,,,          '''####'''          '####       
            ,##' ,,,,###########################,,,                        '##       
           ' ,,###''''                  '''############,,,                           
         ,,##''                                '''############,,,,        ,,,,,,###''
      ,#''                                            '''#######################'''  
     '                                                          ''''####''''         
             ,#######,   #######,   ,#######,      ##                                
            ,#'     '#,  ##    ##  ,#'     '#,    #''#        ,####,   ,####,        
            ##       ##  ##   ,#'  ##            #'  '#       #'       #'  '#        
            ##       ##  #######   ##           ,######,      #####,   #    #        
            '#,     ,#'  ##    ##  '#,     ,#' ,#      #,     #,   #   #,  ,#        
             '#######'   ##     ##  '#######'  #'      '#     '####' # '####'        



                #########################################################
                #                        -***-                          #
                #          Department of theory and spectroscopy        #
                #                                                       #
                #                      Frank Neese                      #
                #                                                       #
                #     Directorship, Architecture, Infrastructure        #
                #                    SHARK, DRIVERS                     #
                #        Core code/Algorithms in most modules           #
                #                                                       #
                #        Max Planck Institute fuer Kohlenforschung      #
                #                Kaiser Wilhelm Platz 1                 #
                #                 D-45470 Muelheim/Ruhr                 #
                #                      Germany                          #
                #                                                       #
                #                  All rights reserved                  #
                #                        -***-                          #
                #########################################################


                         Program Version 6.0.0  -   RELEASE   -


 With contributions from (in alphabetic order):
   Daniel Aravena         : Magnetic Suceptibility
   Michael Atanasov       : Ab Initio Ligand Field Theory (pilot matlab implementation)
   Alexander A. Auer      : GIAO ZORA, VPT2 properties, NMR spectrum
   Ute Becker             : All parallelization in ORCA, NUMFREQ, NUMCALC
   Giovanni Bistoni       : ED, misc. LED, open-shell LED, HFLD
   Martin Brehm           : Molecular dynamics
   Dmytro Bykov           : pre 5.0 version of the SCF Hessian
   Marcos Casanova-Páez   : Triplet and SCS-CIS(D). UHF-(DLPNO)-IP/EA/STEOM-CCSD. UHF-CVS-IP/STEOM-CCSD
   Vijay G. Chilkuri      : MRCI spin determinant printing, contributions to CSF-ICE
   Pauline Colinet        : FMM embedding
   Dipayan Datta          : RHF DLPNO-CCSD density
   Achintya Kumar Dutta   : EOM-CC, STEOM-CC
   Nicolas Foglia         : Exact transition moments, OPA infrastructure, MCD improvements
   Dmitry Ganyushin       : Spin-Orbit,Spin-Spin,Magnetic field MRCI
   Miquel Garcia          : C-PCM and meta-GGA Hessian, CCSD/C-PCM, Gaussian charge scheme
   Tiago L. C. Gouveia    : GS-ROHF, GS-ROCIS
   Yang Guo               : DLPNO-NEVPT2, F12-NEVPT2, CIM, IAO-localization
   Andreas Hansen         : Spin unrestricted coupled pair/coupled cluster methods
   Ingolf Harden          : AUTO-CI MPn and infrastructure 
   Benjamin Helmich-Paris : MC-RPA, TRAH-(SCF,CASSCF), AVAS, COSX integrals, SCF dyn. polar.
   Lee Huntington         : MR-EOM, pCC
   Robert Izsak           : Overlap fitted RIJCOSX, COSX-SCS-MP3, EOM
   Riya Kayal             : Wick's Theorem for AUTO-CI, AUTO-CI UHF-CCSDT
   Emily Kempfer          : AUTO-CI, RHF CISDT and CCSDT
   Christian Kollmar      : KDIIS, OOCD, Brueckner-CCSD(T), CCSD density, CASPT2, CASPT2-K, improved NEVPT2
   Axel Koslowski         : Symmetry handling
   Simone Kossmann        : Meta GGA functionals, TD-DFT gradient, OOMP2, (MP2 Hessian; deprecated post 5.0)
   Lucas Lang             : DCDCAS
   Marvin Lechner         : AUTO-CI (C++ implementation), FIC-MRCC
   Spencer Leger          : CASSCF response
   Dagmar Lenk            : GEPOL surface, SMD, ORCA-2-JSON
   Dimitrios Liakos       : Extrapolation schemes; Compound Job, initial MDCI parallelization
   Dimitrios Manganas     : Further ROCIS development; embedding schemes. LFT, Crystal Embedding
   Dimitrios Pantazis     : SARC Basis sets
   Anastasios Papadopoulos: AUTO-CI, single reference methods and gradients
   Taras Petrenko         : pre 6.0 DFT Hessian and TD-DFT gradient, (ASA, deprecated), ECA, 1-Electron XAS/XES, NRVS
   Peter Pinski           : DLPNO-MP2, DLPNO-MP2 Gradient
   Christoph Reimann      : Effective Core Potentials
   Marius Retegan         : Local ZFS, SOC
   Christoph Riplinger    : Optimizer, TS searches, QM/MM, DLPNO-CCSD(T), (RO)-DLPNO pert. Triples
   Michael Roemelt        : Original ROCIS implementation
   Masaaki Saitow         : Open-shell DLPNO-CCSD energy and density
   Barbara Sandhoefer     : DKH picture change effects
   Kantharuban Sivalingam : CASSCF convergence/infrastructure, NEVPT2 and variants, FIC-MRCI
   Bernardo de Souza      : ESD, SOC TD-DFT
   Georgi Stoychev        : AutoAux, RI-MP2 NMR, DLPNO-MP2 response, X2C
   Van Anh Tran           : RI-MP2 g-tensors
   Willem Van den Heuvel  : Paramagnetic NMR
   Zikuan Wang            : NOTCH, Electric field optimization 
   Frank Wennmohs         : Technical directorship and infrastructure
   Hang Xu                : AUTO-CI-Response properties 


 We gratefully acknowledge several colleagues who have allowed us to
 interface, adapt or use parts of their codes:
   Stefan Grimme, W. Hujo, H. Kruse, P. Pracht,  : VdW corrections, initial TS optimization,
                  C. Bannwarth, S. Ehlert,         DFT functionals, gCP, sTDA/sTD-DF
                  L. Wittmann, M. Mueller
   Ed Valeev, F. Pavosevic, A. Kumar             : LibInt (2-el integral package), F12 methods
   Garnet Chan, S. Sharma, J. Yang, R. Olivares  : DMRG
   Ulf Ekstrom                                   : XCFun DFT Library
   Mihaly Kallay                                 : mrcc  (arbitrary order and MRCC methods)
   Frank Weinhold                                : gennbo (NPA and NBO analysis)
   Simon Mueller                                 : openCOSMO-RS
   Christopher J. Cramer and Donald G. Truhlar   : smd solvation model
   Lars Goerigk                                  : TD-DFT with DH, B97 family of functionals
   V. Asgeirsson, H. Jonsson                     : NEB implementation
   FAccTs GmbH                                   : IRC, NEB, NEB-TS, DLPNO-Multilevel, CI-OPT
                                                   MM, QMMM, 2- and 3-layer-ONIOM, Crystal-QMMM,
                                                   LR-CPCM, SF, NACMEs, symmetry and pop. for TD-DFT,
                                                   nearIR, NL-DFT gradient (VV10), updates on ESD,
                                                   ML-optimized integration grids, MBIS, APM,
                                                   GOAT, DOCKER, SOLVATOR, interface openCOSMO-RS
   S Lehtola, MJT Oliveira, MAL Marques          : LibXC Library
   Liviu Ungur et al                             : ANISO software


 Your calculation uses the libint2 library for the computation of 2-el integrals
 For citations please refer to: http://libint.valeyev.net

 Your ORCA version has been built with support for libXC version: 6.2.2
 For citations please refer to: https://libxc.gitlab.io

 This ORCA versions uses:
   CBLAS   interface :  Fast vector & matrix operations
   LAPACKE interface :  Fast linear algebra routines
   Shared memory     :  Shared parallel matrices


Warning: RI is on but no J-basis has been assigned. Assigning Def2/J (nothing to worry about!)
================================================================================

----- Orbital basis set information -----
Your calculation utilizes the basis: STO-3G
   H-Ne       : W. J. Hehre, R. F. Stewart and J. A. Pople, J. Chem. Phys. 2657 (1969).
   Na-Ar      : W. J. Hehre, R. Ditchfield, R. F. Stewart and J. A. Pople, J. Chem. Phys. 2769 (1970).
   K,Ca,Ga-Kr : W. J. Pietro, B. A. Levy, W. J. Hehre and R. F. Stewart, J. Am. Chem. Soc. 19, 2225 (1980).
   Sc-Zn,Y-Cd : W. J. Pietro and W. J. Hehre, J. Comp. Chem. 4, 241 (1983).

----- AuxJ basis set information -----
Your calculation utilizes the auxiliary basis: def2/J
   F. Weigend, Phys. Chem. Chem. Phys. 8, 1057 (2006).

================================================================================
                                        WARNINGS
                       Please study these warnings very carefully!
================================================================================


WARNING: Geometry Optimization
  ===> : Switching off AutoStart
         For restart on a previous wavefunction, please use MOREAD

================================================================================
                                       INPUT FILE
================================================================================
NAME = Triclosan\Triclosan_TPSS_STO-3G\Triclosan_TPSS_STO-3G.orcainp
|  1> # ORCA input file
|  2> # 
|  3> !TPSS STO-3G Opt CPCM(WATER)
|  4> * xyz 0 1
|  5>    C       -0.49838         1.45672         0.09896
|  6>    C        0.83636         1.86187         0.13987
|  7>    C        1.85850         0.90964         0.07692
|  8>    C        1.52705        -0.44553         0.10327
|  9>    C        0.19399        -0.85911         0.06588
| 10>    C       -0.81311         0.09845         0.04328
| 11>   Cl       -2.45804        -0.38995        -0.04430
| 12>    O        2.48623        -1.41804         0.15924
| 13>    O        3.19540         1.23915         0.00408
| 14>    C        3.55840         2.36555        -0.71342
| 15>    C        4.59924         3.16189        -0.21840
| 16>    C        4.97545         4.33057        -0.88996
| 17>    C        4.31222         4.69779        -2.05616
| 18>    C        3.30213         3.89395        -2.58058
| 19>    C        2.94419         2.71337        -1.92599
| 20>   Cl        4.74503         6.15332        -2.86475
| 21>   Cl        5.43890         2.74189         1.23085
| 22>    H       -1.28677         2.20447         0.09898
| 23>    H        1.06264         2.92223         0.19335
| 24>    H       -0.04081        -1.92109         0.05235
| 25>    H        3.32941        -0.97731         0.37369
| 26>    H        5.77651         4.95189        -0.49678
| 27>    H        2.78688         4.18033        -3.49530
| 28>    H        2.16802         2.08687        -2.36091
| 29> **                         ****END OF INPUT****
================================================================================

                       *****************************
                       * Geometry Optimization Run *
                       *****************************

Geometry optimization settings:
Update method            Update   .... BFGS
Choice of coordinates    CoordSys .... (2022) Redundant Internals
Initial Hessian          InHess   .... Almloef's Model
Max. no of cycles        MaxIter  .... 72

Convergence Tolerances:
Energy Change            TolE     ....  5.0000e-06 Eh
Max. Gradient            TolMAXG  ....  3.0000e-04 Eh/bohr
RMS Gradient             TolRMSG  ....  1.0000e-04 Eh/bohr
Max. Displacement        TolMAXD  ....  4.0000e-03 bohr
RMS Displacement         TolRMSD  ....  2.0000e-03 bohr
Strict Convergence                .... False

------------------------------------------------------------------------------
                        ORCA OPTIMIZATION COORDINATE SETUP
------------------------------------------------------------------------------

The optimization will be done in redundant internal coordinates (2022)
Making redundant internal coordinates   ...  (2022 redundants) done
Evaluating the initial hessian          ...  (Almloef) done
Evaluating the coordinates              ...  done
Calculating the B-matrix                .... done
Calculating the G-matrix                .... done
Diagonalizing the G-matrix              .... done
Small eigenvalue found = 5.189e-03
Small eigenvalue found = 1.845e-02
Small eigenvalue found = 2.339e-02
The first mode is                       ....   52
The number of degrees of freedom        ....   66

    -----------------------------------------------------------------
                    Redundant Internal Coordinates


    -----------------------------------------------------------------
         Definition                    Initial Value    Approx d2E/dq
    -----------------------------------------------------------------
      1. B(C   1,C   0)                  1.3955         0.612355   
      2. B(C   2,C   1)                  1.3984         0.605849   
      3. B(C   3,C   2)                  1.3954         0.612606   
      4. B(C   4,C   3)                  1.3962         0.610629   
      5. B(C   5,C   4)                  1.3898         0.625141   
      6. B(C   5,C   0)                  1.3954         0.612596   
      7. B(Cl  6,C   5)                  1.7181         0.419963   
      8. B(O   7,C   3)                  1.3671         0.608733   
      9. B(O   8,C   2)                  1.3788         0.583028   
     10. B(C   9,O   8)                  1.3840         0.572147   
     11. B(C  10,C   9)                  1.4009         0.600249   
     12. B(C  11,C  10)                  1.3994         0.603574   
     13. B(C  12,C  11)                  1.3910         0.622616   
     14. B(C  13,C  12)                  1.3934         0.617128   
     15. B(C  14,C   9)                  1.4031         0.595543   
     16. B(C  14,C  13)                  1.3966         0.609921   
     17. B(Cl 15,C  12)                  1.7204         0.416517   
     18. B(Cl 16,C  10)                  1.7268         0.406846   
     19. B(H  17,C   0)                  1.0866         0.364633   
     20. B(H  18,C   1)                  1.0856         0.366031   
     21. B(H  19,C   4)                  1.0877         0.363141   
     22. B(H  20,O   8)                  2.2511         0.004531   
     23. B(H  20,O   7)                  0.9753         0.491561   
     24. B(H  21,C  11)                  1.0873         0.363625   
     25. B(H  22,C  13)                  1.0882         0.362471   
     26. B(H  23,C  14)                  1.0882         0.362539   
     27. A(C   1,C   0,H  17)          119.6162         0.352915   
     28. A(C   1,C   0,C   5)          119.9682         0.432164   
     29. A(C   5,C   0,H  17)          120.4118         0.352938   
     30. A(C   0,C   1,H  18)          118.9740         0.353144   
     31. A(C   2,C   1,H  18)          120.9976         0.352506   
     32. A(C   0,C   1,C   2)          120.0073         0.431305   
     33. A(C   1,C   2,C   3)          119.1344         0.431337   
     34. A(C   1,C   2,O   8)          123.2546         0.424738   
     35. A(C   3,C   2,O   8)          117.6070         0.425582   
     36. A(C   2,C   3,C   4)          120.9279         0.431946   
     37. A(C   4,C   3,O   7)          117.4034         0.428636   
     38. A(C   2,C   3,O   7)          121.6678         0.428885   
     39. A(C   3,C   4,C   5)          119.2209         0.433522   
     40. A(C   5,C   4,H  19)          121.0675         0.353906   
     41. A(C   3,C   4,H  19)          119.7115         0.352502   
     42. A(C   0,C   5,Cl  6)          119.6487         0.422262   
     43. A(C   0,C   5,C   4)          120.4351         0.433773   
     44. A(C   4,C   5,Cl  6)          119.9152         0.423795   
     45. A(C   3,O   7,H  20)          107.1047         0.365416   
     46. A(C   2,O   8,C   9)          118.4377         0.417690   
     47. A(O   8,C   9,C  10)          118.3161         0.422608   
     48. A(C  10,C   9,C  14)          119.3218         0.428441   
     49. A(O   8,C   9,C  14)          122.3438         0.422014   
     50. A(C   9,C  10,C  11)          120.3239         0.429471   
     51. A(C  11,C  10,Cl 16)          118.3700         0.418768   
     52. A(C   9,C  10,Cl 16)          121.3041         0.418356   
     53. A(C  12,C  11,H  21)          120.2377         0.353744   
     54. A(C  10,C  11,H  21)          120.1142         0.351889   
     55. A(C  10,C  11,C  12)          119.6461         0.432302   
     56. A(C  13,C  12,Cl 15)          119.5757         0.422197   
     57. A(C  11,C  12,Cl 15)          119.8326         0.422865   
     58. A(C  11,C  12,C  13)          120.5911         0.434032   
     59. A(C  12,C  13,C  14)          119.8068         0.432427   
     60. A(C  14,C  13,H  22)          119.6764         0.352323   
     61. A(C  12,C  13,H  22)          120.5164         0.353024   
     62. A(C   9,C  14,C  13)          120.1619         0.429671   
     63. A(C  13,C  14,H  23)          118.8279         0.352334   
     64. A(C   9,C  14,H  23)          120.9938         0.350916   
     65. D(C   2,C   1,C   0,H  17)   -177.0031         0.025909   
     66. D(H  18,C   1,C   0,H  17)      1.3416         0.025909   
     67. D(C   2,C   1,C   0,C   5)      2.2818         0.025909   
     68. D(H  18,C   1,C   0,C   5)   -179.3735         0.025909   
     69. D(C   3,C   2,C   1,H  18)    175.5746         0.025331   
     70. D(O   8,C   2,C   1,H  18)     -3.6759         0.025331   
     71. D(O   8,C   2,C   1,C   0)    174.6347         0.025331   
     72. D(C   3,C   2,C   1,C   0)     -6.1148         0.025331   
     73. D(O   7,C   3,C   2,O   8)      4.9411         0.025932   
     74. D(O   7,C   3,C   2,C   1)   -174.3516         0.025932   
     75. D(C   4,C   3,C   2,O   8)   -174.7104         0.025932   
     76. D(C   4,C   3,C   2,C   1)      5.9969         0.025932   
     77. D(H  19,C   4,C   3,C   2)    177.8731         0.025755   
     78. D(C   5,C   4,C   3,O   7)    178.3616         0.025755   
     79. D(C   5,C   4,C   3,C   2)     -1.9726         0.025755   
     80. D(H  19,C   4,C   3,O   7)     -1.7928         0.025755   
     81. D(Cl  6,C   5,C   4,H  19)     -1.4413         0.027070   
     82. D(C   0,C   5,C   4,H  19)    178.1925         0.027070   
     83. D(C   0,C   5,C   4,C   3)     -1.9640         0.027070   
     84. D(Cl  6,C   5,C   0,H  17)      0.7193         0.025931   
     85. D(Cl  6,C   5,C   0,C   1)   -178.5598         0.025931   
     86. D(Cl  6,C   5,C   4,C   3)    178.4022         0.027070   
     87. D(C   4,C   5,C   0,H  17)   -178.9155         0.025931   
     88. D(C   4,C   5,C   0,C   1)      1.8053         0.025931   
     89. D(H  20,O   7,C   3,C   4)   -167.9419         0.027116   
     90. D(H  20,O   7,C   3,C   2)     12.3948         0.027116   
     91. D(C   9,O   8,C   2,C   3)    145.4603         0.027282   
     92. D(C   9,O   8,C   2,C   1)    -35.2785         0.027282   
     93. D(C  14,C   9,O   8,C   2)    -39.3694         0.026210   
     94. D(C  10,C   9,O   8,C   2)    142.2004         0.026210   
     95. D(C  11,C  10,C   9,O   8)   -178.1978         0.024839   
     96. D(Cl 16,C  10,C   9,C  14)   -177.1840         0.024839   
     97. D(Cl 16,C  10,C   9,O   8)      1.2949         0.024839   
     98. D(C  11,C  10,C   9,C  14)      3.3233         0.024839   
     99. D(H  21,C  11,C  10,Cl 16)     -0.1788         0.025130   
    100. D(H  21,C  11,C  10,C   9)    179.3286         0.025130   
    101. D(C  12,C  11,C  10,Cl 16)   -179.6682         0.025130   
    102. D(C  12,C  11,C  10,C   9)     -0.1608         0.025130   
    103. D(Cl 15,C  12,C  11,H  21)     -0.9707         0.026838   
    104. D(Cl 15,C  12,C  11,C  10)    178.5182         0.026838   
    105. D(C  13,C  12,C  11,H  21)    178.7584         0.026838   
    106. D(C  13,C  12,C  11,C  10)     -1.7528         0.026838   
    107. D(H  22,C  13,C  12,Cl 15)     -0.0147         0.026339   
    108. D(H  22,C  13,C  12,C  11)   -179.7444         0.026339   
    109. D(C  14,C  13,C  12,Cl 15)   -179.8112         0.026339   
    110. D(C  14,C  13,C  12,C  11)      0.4591         0.026339   
    111. D(H  23,C  14,C  13,H  22)      1.4971         0.025692   
    112. D(H  23,C  14,C  13,C  12)   -178.7046         0.025692   
    113. D(C   9,C  14,C  13,H  22)   -177.0456         0.025692   
    114. D(C   9,C  14,C  13,C  12)      2.7526         0.025692   
    115. D(H  23,C  14,C   9,C  10)    176.8704         0.024431   
    116. D(H  23,C  14,C   9,O   8)     -1.5445         0.024431   
    117. D(C  13,C  14,C   9,C  10)     -4.6189         0.024431   
    118. D(C  13,C  14,C   9,O   8)    176.9661         0.024431   
    -----------------------------------------------------------------

Number of atoms                         .... 24
Number of degrees of freedom            .... 118


         *************************************************************
         *                GEOMETRY OPTIMIZATION CYCLE   1            *
         *************************************************************
---------------------------------
CARTESIAN COORDINATES (ANGSTROEM)
---------------------------------
  C     -0.498380    1.456720    0.098960
  C      0.836360    1.861870    0.139870
  C      1.858500    0.909640    0.076920
  C      1.527050   -0.445530    0.103270
  C      0.193990   -0.859110    0.065880
  C     -0.813110    0.098450    0.043280
  Cl    -2.458040   -0.389950   -0.044300
  O      2.486230   -1.418040    0.159240
  O      3.195400    1.239150    0.004080
  C      3.558400    2.365550   -0.713420
  C      4.599240    3.161890   -0.218400
  C      4.975450    4.330570   -0.889960
  C      4.312220    4.697790   -2.056160
  C      3.302130    3.893950   -2.580580
  C      2.944190    2.713370   -1.925990
  Cl     4.745030    6.153320   -2.864750
  Cl     5.438900    2.741890    1.230850
  H     -1.286770    2.204470    0.098980
  H      1.062640    2.922230    0.193350
  H     -0.040810   -1.921090    0.052350
  H      3.329410   -0.977310    0.373690
  H      5.776510    4.951890   -0.496780
  H      2.786880    4.180330   -3.495300
  H      2.168020    2.086870   -2.360910

----------------------------
CARTESIAN COORDINATES (A.U.)
----------------------------
  NO LB      ZA    FRAG     MASS         X           Y           Z
   0 C     6.0000    0    12.011   -0.941802    2.752802    0.187007
   1 C     6.0000    0    12.011    1.580491    3.518424    0.264316
   2 C     6.0000    0    12.011    3.512056    1.718970    0.145358
   3 C     6.0000    0    12.011    2.885706   -0.841930    0.195152
   4 C     6.0000    0    12.011    0.366588   -1.623483    0.124495
   5 C     6.0000    0    12.011   -1.536555    0.186044    0.081787
   6 Cl   17.0000    0    35.453   -4.645022   -0.736899   -0.083715
   7 O     8.0000    0    15.999    4.698294   -2.679707    0.300920
   8 O     8.0000    0    15.999    6.038431    2.341654    0.007710
   9 C     6.0000    0    12.011    6.724401    4.470242   -1.348168
  10 C     6.0000    0    12.011    8.691304    5.975106   -0.412716
  11 C     6.0000    0    12.011    9.402238    8.183591   -1.681781
  12 C     6.0000    0    12.011    8.148915    8.877537   -3.885579
  13 C     6.0000    0    12.011    6.240121    7.358499   -4.876589
  14 C     6.0000    0    12.011    5.563713    5.127526   -3.639594
  15 Cl   17.0000    0    35.453    8.966807   11.628090   -5.413593
  16 Cl   17.0000    0    35.453   10.278031    5.181421    2.325969
  17 H     1.0000    0     1.008   -2.431643    4.165845    0.187045
  18 H     1.0000    0     1.008    2.008099    5.522214    0.365379
  19 H     1.0000    0     1.008   -0.077120   -3.630334    0.098927
  20 H     1.0000    0     1.008    6.291673   -1.846848    0.706172
  21 H     1.0000    0     1.008   10.916022    9.357716   -0.938778
  22 H     1.0000    0     1.008    5.266440    7.899679   -6.605160
  23 H     1.0000    0     1.008    4.096964    3.943613   -4.461473

--------------------------------
INTERNAL COORDINATES (ANGSTROEM)
--------------------------------
 C      0   0   0     0.000000000000     0.00000000     0.00000000
 C      1   0   0     1.395475194405     0.00000000     0.00000000
 C      2   1   0     1.398382942902   120.00730714     0.00000000
 C      3   2   1     1.395363448676   119.13439743   353.88521152
 C      4   3   2     1.396243314075   120.92787852     5.99690044
 C      5   4   3     1.389849748570   119.22087215   358.02744876
 Cl     6   5   4     1.718138388285   119.91522697   178.40217544
 O      4   3   2     1.367089833698   121.66780929   185.64837581
 O      3   2   1     1.378834332217   123.25460873   174.63471367
 C      9   3   2     1.383962503105   118.43773013   324.72150892
 C     10   9   3     1.400910454526   118.31610011   142.20041341
 C     11  10   9     1.399406924415   120.32394736   181.80216421
 C     12  11  10     1.390951832847   119.64607025   359.83916149
 C     13  12  11     1.393361722633   120.59113197   358.24719922
 C     14  13  12     1.396559432355   119.80682487     0.45907096
 Cl    13  12  11     1.720380732600   119.83263710   178.51818599
 Cl    11  10   9     1.726775746326   121.30414926     1.29488420
 H      1   2   3     1.086595074073   119.61615663   182.99686979
 H      2   1   3     1.085553351245   118.97395465   178.34468767
 H      5   4   3     1.087711184690   119.71147944   177.87310101
 H      8   4   3     0.975286751576   107.10469875    12.39482959
 H     12  11  10     1.087348232352   120.11423103   179.32864385
 H     14  13  12     1.088213556844   120.51644043   180.25560822
 H     15  14  13     1.088162453543   118.82789416   181.29536685

---------------------------
INTERNAL COORDINATES (A.U.)
---------------------------
 C      0   0   0     0.000000000000     0.00000000     0.00000000
 C      1   0   0     2.637065944106     0.00000000     0.00000000
 C      2   1   0     2.642560792432   120.00730714     0.00000000
 C      3   2   1     2.636854775281   119.13439743   353.88521152
 C      4   3   2     2.638517479921   120.92787852     5.99690044
 C      5   4   3     2.626435392097   119.22087215   358.02744876
 Cl     6   5   4     3.246811014036   119.91522697   178.40217544
 O      4   3   2     2.583425386157   121.66780929   185.64837581
 O      3   2   1     2.605619271938   123.25460873   174.63471367
 C      9   3   2     2.615310110484   118.43773013   324.72150892
 C     10   9   3     2.647337097201   118.31610011   142.20041341
 C     11  10   9     2.644495837057   120.32394736   181.80216421
 C     12  11  10     2.628518029556   119.64607025   359.83916149
 C     13  12  11     2.633072061266   120.59113197   358.24719922
 C     14  13  12     2.639114856896   119.80682487     0.45907096
 Cl    13  12  11     3.251048430688   119.83263710   178.51818599
 Cl    11  10   9     3.263133255254   121.30414926     1.29488420
 H      1   2   3     2.053367108466   119.61615663   182.99686979
 H      2   1   3     2.051398537614   118.97395465   178.34468767
 H      5   4   3     2.055476251867   119.71147944   177.87310101
 H      8   4   3     1.843024862521   107.10469875    12.39482959
 H     12  11  10     2.054790371350   120.11423103   179.32864385
 H     14  13  12     2.056425597656   120.51644043   180.25560822
 H     15  14  13     2.056329026411   118.82789416   181.29536685

---------------------
BASIS SET INFORMATION
---------------------
There are 4 groups of distinct atoms

 Group   1 Type C   : 6s3p contracted to 2s1p pattern {33/3}
 Group   2 Type Cl  : 9s6p contracted to 3s2p pattern {333/33}
 Group   3 Type O   : 6s3p contracted to 2s1p pattern {33/3}
 Group   4 Type H   : 3s contracted to 1s pattern {3}

Atom   0C    basis set group =>   1
Atom   1C    basis set group =>   1
Atom   2C    basis set group =>   1
Atom   3C    basis set group =>   1
Atom   4C    basis set group =>   1
Atom   5C    basis set group =>   1
Atom   6Cl   basis set group =>   2
Atom   7O    basis set group =>   3
Atom   8O    basis set group =>   3
Atom   9C    basis set group =>   1
Atom  10C    basis set group =>   1
Atom  11C    basis set group =>   1
Atom  12C    basis set group =>   1
Atom  13C    basis set group =>   1
Atom  14C    basis set group =>   1
Atom  15Cl   basis set group =>   2
Atom  16Cl   basis set group =>   2
Atom  17H    basis set group =>   4
Atom  18H    basis set group =>   4
Atom  19H    basis set group =>   4
Atom  20H    basis set group =>   4
Atom  21H    basis set group =>   4
Atom  22H    basis set group =>   4
Atom  23H    basis set group =>   4
---------------------------------
AUXILIARY/J BASIS SET INFORMATION
---------------------------------
There are 4 groups of distinct atoms

 Group   1 Type C   : 12s5p4d2f1g contracted to 6s4p3d1f1g pattern {711111/2111/211/2/1}
 Group   2 Type Cl  : 14s5p5d2f1g contracted to 8s4p3d1f1g pattern {71111111/2111/311/2/1}
 Group   3 Type O   : 12s5p4d2f1g contracted to 6s4p3d1f1g pattern {711111/2111/211/2/1}
 Group   4 Type H   : 5s2p1d contracted to 3s1p1d pattern {311/2/1}

Atom   0C    basis set group =>   1
Atom   1C    basis set group =>   1
Atom   2C    basis set group =>   1
Atom   3C    basis set group =>   1
Atom   4C    basis set group =>   1
Atom   5C    basis set group =>   1
Atom   6Cl   basis set group =>   2
Atom   7O    basis set group =>   3
Atom   8O    basis set group =>   3
Atom   9C    basis set group =>   1
Atom  10C    basis set group =>   1
Atom  11C    basis set group =>   1
Atom  12C    basis set group =>   1
Atom  13C    basis set group =>   1
Atom  14C    basis set group =>   1
Atom  15Cl   basis set group =>   2
Atom  16Cl   basis set group =>   2
Atom  17H    basis set group =>   4
Atom  18H    basis set group =>   4
Atom  19H    basis set group =>   4
Atom  20H    basis set group =>   4
Atom  21H    basis set group =>   4
Atom  22H    basis set group =>   4
Atom  23H    basis set group =>   4
------------------------------------------------------------------------------
                             ORCA STARTUP CALCULATIONS
                           -- RI-GTO INTEGRALS CHOSEN --
------------------------------------------------------------------------------
------------------------------------------------------------------------------
                   ___                                                        
                  /   \      - P O W E R E D   B Y -                         
                 /     \                                                     
                 |  |  |   _    _      __       _____    __    __             
                 |  |  |  | |  | |    /  \     |  _  \  |  |  /  |          
                  \  \/   | |  | |   /    \    | | | |  |  | /  /          
                 / \  \   | |__| |  /  /\  \   | |_| |  |  |/  /          
                |  |  |   |  __  | /  /__\  \  |    /   |      \           
                |  |  |   | |  | | |   __   |  |    \   |  |\   \          
                \     /   | |  | | |  |  |  |  | |\  \  |  | \   \       
                 \___/    |_|  |_| |__|  |__|  |_| \__\ |__|  \__/        
                                                                              
                      - O R C A' S   B I G   F R I E N D -                    
                                      &                                       
                       - I N T E G R A L  F E E D E R -                       
                                                                              
 v1 FN, 2020, v2 2021, v3 2022-2024                                           
------------------------------------------------------------------------------


----------------------
SHARK INTEGRAL PACKAGE
----------------------

Number of atoms                             ...     24
Number of basis functions                   ...    104
Number of shells                            ...     64
Maximum angular momentum                    ...      1
Integral batch strategy                     ... SHARK/LIBINT Hybrid
RI-J (if used) integral strategy            ... SPLIT-RIJ (Revised 2003 algorithm where possible)
Printlevel                                  ...      1
Contraction scheme used                     ... SEGMENTED contraction
Prescreening option                         ... SCHWARTZ
   Thresh                                   ... 2.500e-11
   Tcut                                     ... 2.500e-12
   Tpresel                                  ... 2.500e-12 
Coulomb Range Separation                    ... NOT USED
Exchange Range Separation                   ... NOT USED
Multipole approximations                    ... NOT USED
Finite Nucleus Model                        ... NOT USED
CABS basis                                  ... NOT available
Auxiliary Coulomb fitting basis             ... AVAILABLE
   # of basis functions in Aux-J            ...    916
   # of shells in Aux-J                     ...    296
   Maximum angular momentum in Aux-J        ...      4
Auxiliary J/K fitting basis                 ... NOT available
Auxiliary Correlation fitting basis         ... NOT available
Auxiliary 'external' fitting basis          ... NOT available

Checking pre-screening integrals            ... done (  0.0 sec) Dimension = 64
Check shell pair data                       ... done (  0.0 sec)
Shell pair information
Shell pair cut-off parameter TPreSel        ...   2.5e-12
Total number of shell pairs                 ...      2080
Shell pairs after pre-screening             ...      1547
Total number of primitive shell pairs       ...     18720
Primitive shell pairs kept                  ...      9002
          la=0 lb=0:    686 shell pairs
          la=1 lb=0:    685 shell pairs
          la=1 lb=1:    176 shell pairs

Calculating one electron integrals          ... done (  0.0 sec)
Calculating RI/J V-Matrix + Cholesky decomp.... done (  0.0 sec)
Calculating Nuclear repulsion               ... done (  0.0 sec) ENN=   1433.084984797995 Eh

Diagonalization of the overlap matrix:
Smallest eigenvalue                        ... 1.726e-01
Time for diagonalization                   ...    0.001 sec
Threshold for overlap eigenvalues          ... 1.000e-07
Number of eigenvalues below threshold      ... 0
Time for construction of square roots      ...    0.002 sec
Total time needed                          ...    0.004 sec

-------------------
DFT GRID GENERATION
-------------------

General Integration Accuracy     IntAcc      ... 4.388
Radial Grid Type                 RadialGrid  ... OptM3 with GC (2021)
Angular Grid (max. ang.)         AngularGrid ... 4 (Lebedev-302)
Angular grid pruning method      GridPruning ... 4 (adaptive)
Weight generation scheme         WeightScheme... mBecke (2022)
Basis function cutoff            BFCut       ... 1.0000e-11
Integration weight cutoff        WCut        ... 1.0000e-14
Partially contracted basis set               ... off
Rotationally invariant grid construction     ... off
Angular grids for H and He will be reduced by one unit

Total number of grid points                  ...   128284
Total number of batches                      ...     2017
Average number of points per batch           ...       63
Average number of grid points per atom       ...     5345
Initializing property integral containers    ... done (  0.0 sec)

SHARK setup successfully completed in   0.6 seconds

Maximum memory used throughout the entire STARTUP-calculation: 45.2 MB
-------------------------------------------------------------------------------
                                 ORCA GUESS
                   Start orbitals & Density for SCF / CASSCF
-------------------------------------------------------------------------------

------------
SCF SETTINGS
------------
Hamiltonian:
 Density Functional     Method          .... DFT(GTOs)
 Exchange Functional    Exchange        .... TPSS
 Correlation Functional Correlation     .... TPSS
 LDA part of GGA corr.  LDAOpt          .... PW91-LDA
 Gradients option       PostSCFGGA      .... off
   NL short-range parameter             ....  5.000000
 RI-approximation to the Coulomb term is turned on
   Number of AuxJ basis functions       .... 916


General Settings:
 Integral files         IntName         .... Triclosan\Triclosan_TPSS_STO-3G\Triclosan_TPSS_STO-3G.orcainp
 Hartree-Fock type      HFTyp           .... RHF
 Total Charge           Charge          ....    0
 Multiplicity           Mult            ....    1
 Number of Electrons    NEL             ....  146
 Basis Dimension        Dim             ....  104
 Nuclear Repulsion      ENuc            ....   1433.0849847980 Eh

Convergence Acceleration:
 AO-DIIS                CNVDIIS         .... on
   Start iteration      DIISMaxIt       ....    12
   Startup error        DIISStart       ....  0.200000
   # of expansion vecs  DIISMaxEq       ....     5
   Bias factor          DIISBfac        ....   1.050
   Max. coefficient     DIISMaxC        ....  10.000
 MO-DIIS                CNVKDIIS        .... off
 Trust-Rad. Augm. Hess. CNVTRAH         .... auto
   Auto Start mean grad. ratio tolernc. ....  1.125000
   Auto Start start iteration           ....    50
   Auto Start num. interpolation iter.  ....    10
   Max. Number of Micro iterations      ....    24
   Max. Number of Macro iterations      .... Maxiter - #DIIS iter
   Number of Davidson start vectors     ....     2
   Converg. threshold    (grad. norm)   ....   1.000e-05
   Grad. Scal. Fac. for Micro threshold ....   0.100
   Minimum threshold for Micro iter.    ....   1.000e-02
   NR start threshold (gradient norm)   ....   1.000e-04
   Initial trust radius                 ....   0.400
   Minimum AH scaling param. (alpha)    ....   1.000
   Maximum AH scaling param. (alpha)    .... 1000.000
   Quad. conv. algorithm                .... NR
   White noise on init. David. guess    .... on
   Maximum white noise                  ....   0.010
   Pseudo random numbers                .... off
   Inactive MOs                         .... canonical
   Orbital update algorithm             .... Taylor
   Preconditioner                       .... Diag
   Full preconditioner red. dimension   ....   250
 SOSCF                  CNVSOSCF        .... on
   Start iteration      SOSCFMaxIt      ....   150
   Startup grad/error   SOSCFStart      ....  0.003300
   Hessian update       SOSCFHessUp     .... L-BFGS
 Level Shifting         CNVShift        .... on
   Level shift para.    LevelShift      ....    0.2500
   Turn off err/grad.   ShiftErr        ....    0.0010
 Zerner damping         CNVZerner       .... off
 Static damping         CNVDamp         .... on
   Fraction old density DampFac         ....    0.7000
   Max. Damping (<1)    DampMax         ....    0.9800
   Min. Damping (>=0)   DampMin         ....    0.0000
   Turn off err/grad.   DampErr         ....    0.1000

SCF Procedure:
 Maximum # iterations   MaxIter         ....   125
 SCF integral mode      SCFMode         .... Direct
   Integral package                     .... SHARK and LIBINT hybrid scheme
 Reset frequency        DirectResetFreq ....    20
 Integral Threshold     Thresh          ....  2.500e-11 Eh
 Primitive CutOff       TCut            ....  2.500e-12 Eh

Convergence Tolerance:
 Convergence Check Mode ConvCheckMode   .... Total+1el-Energy
 Convergence forced     ConvForced      .... 0
 Energy Change          TolE            ....  1.000e-08 Eh
 1-El. energy change                    ....  1.000e-05 Eh
 Orbital Gradient       TolG            ....  1.000e-05
 Orbital Rotation angle TolX            ....  1.000e-05
 DIIS Error             TolErr          ....  5.000e-07

------------------------------
INITIAL GUESS: MODEL POTENTIAL
------------------------------
Loading Hartree-Fock densities                     ... done
Calculating cut-offs                               ... done
Initializing the effective Hamiltonian             ... done
Setting up the integral package (SHARK)            ... done
Starting the Coulomb interaction                   ... done (   0.1 sec)
Making the grid                                    ... done (   0.2 sec)
Mapping shells                                     ... done
Starting the XC term evaluation                    ... done (   0.1 sec)
  promolecular density results
     # of electrons  =    145.990663720
     EX              =   -161.966494946
     EC              =     -5.226448839
     EX+EC           =   -167.192943785
Transforming the Hamiltonian                       ... done (   0.0 sec)
Diagonalizing the Hamiltonian                      ... done (   0.0 sec)
Back transforming the eigenvectors                 ... done (   0.0 sec)
Now organizing SCF variables                       ... done
                      ------------------
                      INITIAL GUESS DONE (   0.3 sec)
                      ------------------
             **** ENERGY FILE WAS UPDATED (Triclosan\Triclosan_TPSS_STO-3G\Triclosan_TPSS_STO-3G.orcainp.en.tmp) ****
Finished Guess after   0.4 sec
Maximum memory used throughout the entire GUESS-calculation: 19.5 MB

-------------------------------------------------------------------------------------------
                                      ORCA LEAN-SCF
                              memory conserving SCF solver
-------------------------------------------------------------------------------------------

--------------------
CPCM SOLVATION MODEL
--------------------
CPCM parameters:
  Epsilon                                         ...      80.1510
  Refrac                                          ...       1.3328
  Rsolv                                           ...       1.3000
  Surface type                                    ... GAUSSIAN VDW
  Discretization scheme                           ... Constant charge density
    Threshold for H atoms                         ...       5.0000 (charges/Ang^2)
    Threshold for non-H atoms                     ...       5.0000 (charges/Ang^2)
  Epsilon function type                           ...         CPCM
Solvent:                                          ... WATER
Radii:
  Scheme                                          ... Element-dependent radii
  Radius for C  used is    3.8550 Bohr (=   2.0400 Ang.)
  Radius for Cl used is    3.9684 Bohr (=   2.1000 Ang.)
  Radius for O  used is    3.4469 Bohr (=   1.8240 Ang.)
  Radius for H  used is    2.4944 Bohr (=   1.3200 Ang.)
Calculating surface                               ...        done! (  0.0s)
Cavity surface points                             ...         2518
Cavity Volume                                     ...    1981.6541
Cavity Surface-area                               ...    1034.6095
Calculating surface distance matrix               ...        done! (  0.0s)
Performing Cholesky decomposition & store         ...        done! (  0.1s)
Overall time for CPCM initialization              ...                 0.1s

----------------------------------------D-I-I-S--------------------------------------------
Iteration    Energy (Eh)           Delta-E    RMSDP     MaxDP     DIISErr   Damp  Time(sec)
-------------------------------------------------------------------------------------------
               ***  Starting incremental Fock matrix formation  ***
    1    -1969.9464829536834714     0.00e+00  4.16e-03  5.70e-02  1.13e-01  0.700   0.9
    2    -1969.9928279919788565    -4.63e-02  3.15e-03  4.48e-02  6.84e-02  0.700   0.9
                               ***Turning on AO-DIIS***
    3    -1970.0125813446277334    -1.98e-02  1.35e-03  2.09e-02  3.46e-02  0.700   0.8
    4    -1970.0236864812020485    -1.11e-02  2.25e-03  3.62e-02  2.02e-02  0.000   0.8
    5    -1970.0470899221220407    -2.34e-02  5.08e-04  8.59e-03  4.71e-03  0.000   0.8
                              *** Initializing SOSCF ***
---------------------------------------S-O-S-C-F--------------------------------------
Iteration    Energy (Eh)           Delta-E    RMSDP     MaxDP     MaxGrad    Time(sec)
--------------------------------------------------------------------------------------
    6    -1970.0473858825928346    -2.96e-04  1.34e-04  1.85e-03  1.18e-03     0.8
               *** Restarting incremental Fock matrix formation ***
    7    -1970.0474083164565400    -2.24e-05  1.36e-04  2.57e-03  3.64e-04     0.9
    8    -1970.0474085430994364    -2.27e-07  7.08e-05  1.56e-03  3.58e-04     0.8
    9    -1970.0474122075791001    -3.66e-06  4.28e-05  6.99e-04  9.61e-05     0.8
   10    -1970.0474122736893605    -6.61e-08  2.17e-05  3.83e-04  7.61e-05     0.7
   11    -1970.0474126670249007    -3.93e-07  1.19e-05  2.01e-04  2.68e-05     0.7
   12    -1970.0474126689794048    -1.95e-09  6.56e-06  1.33e-04  2.71e-05     0.7
                 **** Energy Check signals convergence ****

               *****************************************************
               *                     SUCCESS                       *
               *           SCF CONVERGED AFTER  12 CYCLES          *
               *****************************************************

             **** ENERGY FILE WAS UPDATED (Triclosan\Triclosan_TPSS_STO-3G\Triclosan_TPSS_STO-3G.orcainp.en.tmp) ****

----------------
TOTAL SCF ENERGY
----------------

Total Energy       :      -1970.04741266897940 Eh          -53607.71546 eV

Components:
Nuclear Repulsion  :       1433.08498479799505 Eh           38996.22497 eV
Electronic Energy  :      -3403.12329449160052 Eh          -92603.69272 eV
One Electron Energy:      -5561.93492444652293 Eh         -151347.94367 eV
Two Electron Energy:       2158.81162995492241 Eh           58744.25095 eV
CPCM Dielectric    :         -0.00910297537399 Eh              -0.24770 eV

Virial components:
Potential Energy   :      -3903.36423258619379 Eh         -106215.94068 eV
Kinetic Energy     :       1933.31681991721462 Eh           52608.22522 eV
Virial Ratio       :          2.01899874473411

DFT components:
N(Alpha)           :       73.000012937939 electrons
N(Beta)            :       73.000012937939 electrons
N(Total)           :      146.000025875877 electrons
E(X)               :     -164.310891278406 Eh       
E(C)               :       -5.408380597610 Eh       
E(XC)              :     -169.719271876015 Eh       

CPCM Solvation Model Properties:
Surface-charge          :         -0.00599517867740
Corrected charge        :          0.00000000000000
Outlying charge corr.   :          0.00000200921850 Eh               0.00005 eV
Free-energy (cav+disp)  :  This term is not implemented in the current solvation scheme

---------------
SCF CONVERGENCE
---------------

  Last Energy change         ...    1.9545e-09  Tolerance :   1.0000e-08
  Last MAX-Density change    ...    1.3282e-04  Tolerance :   1.0000e-07
  Last RMS-Density change    ...    6.5563e-06  Tolerance :   5.0000e-09
  Last DIIS Error            ...    1.1816e-03  Tolerance :   5.0000e-07
  Last Orbital Gradient      ...    2.7095e-05  Tolerance :   1.0000e-05
  Last Orbital Rotation      ...    5.5291e-05  Tolerance :   1.0000e-05


----------------
ORBITAL ENERGIES
----------------

  NO   OCC          E(Eh)            E(eV) 
   0   2.0000     -99.950707     -2719.7970 
   1   2.0000     -99.945251     -2719.6485 
   2   2.0000     -99.935078     -2719.3717 
   3   2.0000     -18.757915      -510.4288 
   4   2.0000     -18.716303      -509.2965 
   5   2.0000      -9.918263      -269.8897 
   6   2.0000      -9.903730      -269.4942 
   7   2.0000      -9.898541      -269.3530 
   8   2.0000      -9.895526      -269.2710 
   9   2.0000      -9.892085      -269.1773 
  10   2.0000      -9.883210      -268.9358 
  11   2.0000      -9.862120      -268.3619 
  12   2.0000      -9.854731      -268.1609 
  13   2.0000      -9.852665      -268.1047 
  14   2.0000      -9.835818      -267.6462 
  15   2.0000      -9.834672      -267.6150 
  16   2.0000      -9.831006      -267.5153 
  17   2.0000      -9.058058      -246.4823 
  18   2.0000      -9.053197      -246.3500 
  19   2.0000      -9.043873      -246.0963 
  20   2.0000      -6.864268      -186.7862 
  21   2.0000      -6.859290      -186.6508 
  22   2.0000      -6.849802      -186.3926 
  23   2.0000      -6.846899      -186.3136 
  24   2.0000      -6.846019      -186.2896 
  25   2.0000      -6.842070      -186.1822 
  26   2.0000      -6.841147      -186.1571 
  27   2.0000      -6.832764      -185.9290 
  28   2.0000      -6.831856      -185.9043 
  29   2.0000      -0.988254       -26.8918 
  30   2.0000      -0.950687       -25.8695 
  31   2.0000      -0.813213       -22.1286 
  32   2.0000      -0.790450       -21.5092 
  33   2.0000      -0.777510       -21.1571 
  34   2.0000      -0.734532       -19.9876 
  35   2.0000      -0.726387       -19.7660 
  36   2.0000      -0.663279       -18.0487 
  37   2.0000      -0.660651       -17.9772 
  38   2.0000      -0.653644       -17.7865 
  39   2.0000      -0.616801       -16.7840 
  40   2.0000      -0.555309       -15.1107 
  41   2.0000      -0.545197       -14.8356 
  42   2.0000      -0.525875       -14.3098 
  43   2.0000      -0.508872       -13.8471 
  44   2.0000      -0.476366       -12.9626 
  45   2.0000      -0.438565       -11.9340 
  46   2.0000      -0.420951       -11.4547 
  47   2.0000      -0.417358       -11.3569 
  48   2.0000      -0.400773       -10.9056 
  49   2.0000      -0.392068       -10.6687 
  50   2.0000      -0.380148       -10.3444 
  51   2.0000      -0.367778       -10.0078 
  52   2.0000      -0.366855        -9.9826 
  53   2.0000      -0.344875        -9.3845 
  54   2.0000      -0.338556        -9.2126 
  55   2.0000      -0.326719        -8.8905 
  56   2.0000      -0.316575        -8.6145 
  57   2.0000      -0.313749        -8.5375 
  58   2.0000      -0.307212        -8.3597 
  59   2.0000      -0.289123        -7.8674 
  60   2.0000      -0.279945        -7.6177 
  61   2.0000      -0.260590        -7.0910 
  62   2.0000      -0.243996        -6.6395 
  63   2.0000      -0.230136        -6.2623 
  64   2.0000      -0.225911        -6.1473 
  65   2.0000      -0.223713        -6.0875 
  66   2.0000      -0.220312        -5.9950 
  67   2.0000      -0.216016        -5.8781 
  68   2.0000      -0.206005        -5.6057 
  69   2.0000      -0.184258        -5.0139 
  70   2.0000      -0.166931        -4.5424 
  71   2.0000      -0.143567        -3.9067 
  72   2.0000      -0.108978        -2.9655 
  73   0.0000       0.028518         0.7760 
  74   0.0000       0.030410         0.8275 
  75   0.0000       0.053939         1.4678 
  76   0.0000       0.063407         1.7254 
  77   0.0000       0.095076         2.5871 
  78   0.0000       0.131216         3.5706 
  79   0.0000       0.133726         3.6389 
  80   0.0000       0.174485         4.7480 
  81   0.0000       0.195028         5.3070 
  82   0.0000       0.220702         6.0056 
  83   0.0000       0.285685         7.7739 
*Only the first 10 virtual orbitals were printed.

                    ********************************
                    * MULLIKEN POPULATION ANALYSIS *
                    ********************************

-----------------------
MULLIKEN ATOMIC CHARGES
-----------------------
   0 C :   -0.084224
   1 C :   -0.088541
   2 C :    0.068727
   3 C :    0.084760
   4 C :   -0.091980
   5 C :   -0.001037
   6 Cl:   -0.109074
   7 O :   -0.223357
   8 O :   -0.161758
   9 C :    0.107159
  10 C :    0.003558
  11 C :   -0.061768
  12 C :    0.005249
  13 C :   -0.064324
  14 C :   -0.078995
  15 Cl:   -0.093996
  16 Cl:   -0.085821
  17 H :    0.092774
  18 H :    0.096886
  19 H :    0.099966
  20 H :    0.256061
  21 H :    0.114345
  22 H :    0.106542
  23 H :    0.108848
Sum of atomic charges:   -0.0000000

--------------------------------
MULLIKEN REDUCED ORBITAL CHARGES
--------------------------------
  0 C s       :     3.136179  s :     3.136179
      pz      :     1.044587  p :     2.948045
      px      :     0.964125
      py      :     0.939333

  1 C s       :     3.142398  s :     3.142398
      pz      :     1.028067  p :     2.946142
      px      :     0.937523
      py      :     0.980553

  2 C s       :     3.096629  s :     3.096629
      pz      :     1.110670  p :     2.834645
      px      :     0.766681
      py      :     0.957294

  3 C s       :     3.101314  s :     3.101314
      pz      :     1.057485  p :     2.813926
      px      :     0.895568
      py      :     0.860873

  4 C s       :     3.130676  s :     3.130676
      pz      :     1.064772  p :     2.961303
      px      :     0.913868
      py      :     0.982663

  5 C s       :     3.147781  s :     3.147781
      pz      :     1.085374  p :     2.853255
      px      :     0.793909
      py      :     0.973973

  6 Cls       :     5.958205  s :     5.958205
      pz      :     3.935797  p :    11.150869
      px      :     3.292469
      py      :     3.922602

  7 O s       :     3.844523  s :     3.844523
      pz      :     1.757667  p :     4.378834
      px      :     1.151693
      py      :     1.469473

  8 O s       :     3.802697  s :     3.802697
      pz      :     1.626892  p :     4.359061
      px      :     1.303938
      py      :     1.428230

  9 C s       :     3.105100  s :     3.105100
      pz      :     0.945002  p :     2.787742
      px      :     0.995623
      py      :     0.847117

 10 C s       :     3.147597  s :     3.147597
      pz      :     0.869330  p :     2.848845
      px      :     0.987530
      py      :     0.991986

 11 C s       :     3.139437  s :     3.139437
      pz      :     0.954076  p :     2.922331
      px      :     1.004149
      py      :     0.964106

 12 C s       :     3.145283  s :     3.145283
      pz      :     0.967959  p :     2.849468
      px      :     1.015441
      py      :     0.866068

 13 C s       :     3.143971  s :     3.143971
      pz      :     1.000220  p :     2.920353
      px      :     0.969675
      py      :     0.950458

 14 C s       :     3.144966  s :     3.144966
      pz      :     0.942352  p :     2.934029
      px      :     1.009681
      py      :     0.981996

 15 Cls       :     5.959032  s :     5.959032
      pz      :     3.798269  p :    11.134965
      px      :     3.912624
      py      :     3.424072

 16 Cls       :     5.959970  s :     5.959970
      pz      :     3.427604  p :    11.125851
      px      :     3.772794
      py      :     3.925453

 17 H s       :     0.907226  s :     0.907226

 18 H s       :     0.903114  s :     0.903114

 19 H s       :     0.900034  s :     0.900034

 20 H s       :     0.743939  s :     0.743939

 21 H s       :     0.885655  s :     0.885655

 22 H s       :     0.893458  s :     0.893458

 23 H s       :     0.891152  s :     0.891152



                     *******************************
                     * LOEWDIN POPULATION ANALYSIS *
                     *******************************

----------------------
LOEWDIN ATOMIC CHARGES
----------------------
   0 C :   -0.064810
   1 C :   -0.062521
   2 C :    0.031679
   3 C :    0.055163
   4 C :   -0.082681
   5 C :   -0.007170
   6 Cl:   -0.068543
   7 O :   -0.111326
   8 O :   -0.062358
   9 C :    0.072948
  10 C :   -0.017186
  11 C :   -0.047617
  12 C :   -0.003815
  13 C :   -0.038153
  14 C :   -0.053375
  15 Cl:   -0.055187
  16 Cl:   -0.047502
  17 H :    0.054031
  18 H :    0.057792
  19 H :    0.060884
  20 H :    0.186775
  21 H :    0.071304
  22 H :    0.064495
  23 H :    0.067175

-------------------------------
LOEWDIN REDUCED ORBITAL CHARGES
-------------------------------
  0 C s       :     3.017424  s :     3.017424
      pz      :     1.047365  p :     3.047386
      px      :     1.007998
      py      :     0.992023

  1 C s       :     3.021831  s :     3.021831
      pz      :     1.029823  p :     3.040690
      px      :     0.996325
      py      :     1.014542

  2 C s       :     3.019413  s :     3.019413
      pz      :     1.109078  p :     2.948908
      px      :     0.831646
      py      :     1.008184

  3 C s       :     3.021130  s :     3.021130
      pz      :     1.055928  p :     2.923708
      px      :     0.945401
      py      :     0.922379

  4 C s       :     3.016055  s :     3.016055
      pz      :     1.068507  p :     3.066627
      px      :     0.981750
      py      :     1.016369

  5 C s       :     3.049187  s :     3.049187
      pz      :     1.082917  p :     2.957983
      px      :     0.856517
      py      :     1.018549

  6 Cls       :     5.908330  s :     5.908330
      pz      :     3.933872  p :    11.160213
      px      :     3.302661
      py      :     3.923679

  7 O s       :     3.693676  s :     3.693676
      pz      :     1.758599  p :     4.417650
      px      :     1.172072
      py      :     1.486979

  8 O s       :     3.663386  s :     3.663386
      pz      :     1.633020  p :     4.398972
      px      :     1.322473
      py      :     1.443478

  9 C s       :     3.026022  s :     3.026022
      pz      :     0.983462  p :     2.901030
      px      :     1.024727
      py      :     0.892842

 10 C s       :     3.055739  s :     3.055739
      pz      :     0.914740  p :     2.961447
      px      :     1.019849
      py      :     1.026857

 11 C s       :     3.022720  s :     3.022720
      pz      :     0.999311  p :     3.024897
      px      :     1.022436
      py      :     1.003151

 12 C s       :     3.048156  s :     3.048156
      pz      :     1.003612  p :     2.955659
      px      :     1.039938
      py      :     0.912109

 13 C s       :     3.022516  s :     3.022516
      pz      :     1.021056  p :     3.015638
      px      :     0.999094
      py      :     0.995487

 14 C s       :     3.024592  s :     3.024592
      pz      :     0.987173  p :     3.028783
      px      :     1.026489
      py      :     1.015122

 15 Cls       :     5.909653  s :     5.909653
      pz      :     3.800573  p :    11.145535
      px      :     3.912618
      py      :     3.432344

 16 Cls       :     5.911451  s :     5.911451
      pz      :     3.435538  p :    11.136051
      px      :     3.774796
      py      :     3.925716

 17 H s       :     0.945969  s :     0.945969

 18 H s       :     0.942208  s :     0.942208

 19 H s       :     0.939116  s :     0.939116

 20 H s       :     0.813225  s :     0.813225

 21 H s       :     0.928696  s :     0.928696

 22 H s       :     0.935505  s :     0.935505

 23 H s       :     0.932825  s :     0.932825



                      *****************************
                      * MAYER POPULATION ANALYSIS *
                      *****************************

  NA   - Mulliken gross atomic population
  ZA   - Total nuclear charge
  QA   - Mulliken gross atomic charge
  VA   - Mayer's total valence
  BVA  - Mayer's bonded valence
  FA   - Mayer's free valence

  ATOM       NA         ZA         QA         VA         BVA        FA
  0 C      6.0842     6.0000    -0.0842     3.9654     3.9654    -0.0000
  1 C      6.0885     6.0000    -0.0885     3.9668     3.9668     0.0000
  2 C      5.9313     6.0000     0.0687     3.8990     3.8990     0.0000
  3 C      5.9152     6.0000     0.0848     3.9299     3.9299    -0.0000
  4 C      6.0920     6.0000    -0.0920     3.9625     3.9625    -0.0000
  5 C      6.0010     6.0000    -0.0010     3.9167     3.9167     0.0000
  6 Cl    17.1091    17.0000    -0.1091     1.1202     1.1202    -0.0000
  7 O      8.2234     8.0000    -0.2234     2.2819     2.2819    -0.0000
  8 O      8.1618     8.0000    -0.1618     2.3869     2.3869    -0.0000
  9 C      5.8928     6.0000     0.1072     3.9123     3.9123    -0.0000
 10 C      5.9964     6.0000     0.0036     3.9175     3.9175    -0.0000
 11 C      6.0618     6.0000    -0.0618     3.9632     3.9632     0.0000
 12 C      5.9948     6.0000     0.0052     3.9219     3.9219     0.0000
 13 C      6.0643     6.0000    -0.0643     3.9655     3.9655    -0.0000
 14 C      6.0790     6.0000    -0.0790     3.9641     3.9641    -0.0000
 15 Cl    17.0940    17.0000    -0.0940     1.1317     1.1317    -0.0000
 16 Cl    17.0858    17.0000    -0.0858     1.1364     1.1364    -0.0000
 17 H      0.9072     1.0000     0.0928     0.9914     0.9914     0.0000
 18 H      0.9031     1.0000     0.0969     0.9906     0.9906    -0.0000
 19 H      0.9000     1.0000     0.1000     0.9900     0.9900    -0.0000
 20 H      0.7439     1.0000     0.2561     0.9344     0.9344    -0.0000
 21 H      0.8857     1.0000     0.1143     0.9869     0.9869    -0.0000
 22 H      0.8935     1.0000     0.1065     0.9886     0.9886    -0.0000
 23 H      0.8912     1.0000     0.1088     0.9882     0.9882    -0.0000

  Mayer bond orders larger than 0.100000
B(  0-C ,  1-C ) :   1.4275 B(  0-C ,  5-C ) :   1.3755 B(  0-C , 17-H ) :   0.9584 
B(  1-C ,  2-C ) :   1.3658 B(  1-C , 18-H ) :   0.9550 B(  2-C ,  3-C ) :   1.2703 
B(  2-C ,  8-O ) :   1.0041 B(  3-C ,  4-C ) :   1.3376 B(  3-C ,  7-O ) :   1.1339 
B(  4-C ,  5-C ) :   1.4069 B(  4-C , 19-H ) :   0.9554 B(  5-C ,  6-Cl) :   0.9815 
B(  7-O , 20-H ) :   0.8949 B(  8-O ,  9-C ) :   1.0304 B(  9-C , 10-C ) :   1.3176 
B(  9-C , 14-C ) :   1.3427 B( 10-C , 11-C ) :   1.3983 B( 10-C , 16-Cl) :   0.9896 
B( 11-C , 12-C ) :   1.3949 B( 11-C , 14-C ) :   0.1042 B( 11-C , 21-H ) :   0.9529 
B( 12-C , 13-C ) :   1.3775 B( 12-C , 15-Cl) :   0.9884 B( 13-C , 14-C ) :   1.4459 
B( 13-C , 22-H ) :   0.9556 B( 14-C , 23-H ) :   0.9521 

-------
TIMINGS
-------

Total SCF time: 0 days 0 hours 0 min 10 sec 

Total time                  ....      10.006 sec
Sum of individual times     ....       9.932 sec  ( 99.3%)

SCF preparation             ....       0.186 sec  (  1.9%)
Fock matrix formation       ....       9.640 sec  ( 96.3%)
  Startup                   ....       0.011 sec  (  0.1% of F)
  Split-RI-J                ....       1.992 sec  ( 20.7% of F)
  XC integration            ....       3.924 sec  ( 40.7% of F)
    Basis function eval.    ....       1.042 sec  ( 26.6% of XC)
    Density eval.           ....       1.163 sec  ( 29.6% of XC)
    XC-Functional eval.     ....       0.574 sec  ( 14.6% of XC)
    XC-Potential eval.      ....       0.763 sec  ( 19.4% of XC)
  CPCM terms                ....       3.650 sec  ( 37.9% of F)
Diagonalization             ....       0.000 sec  (  0.0%)
Density matrix formation    ....       0.025 sec  (  0.2%)
Total Energy calculation    ....       0.013 sec  (  0.1%)
Population analysis         ....       0.008 sec  (  0.1%)
Orbital Transformation      ....       0.006 sec  (  0.1%)
Orbital Orthonormalization  ....       0.000 sec  (  0.0%)
DIIS solution               ....       0.034 sec  (  0.3%)
SOSCF solution              ....       0.020 sec  (  0.2%)
Finished LeanSCF after  10.1 sec

Maximum memory used throughout the entire LEANSCF-calculation: 55.8 MB

-------------------------   --------------------
FINAL SINGLE POINT ENERGY     -1970.047412668979
-------------------------   --------------------

------------------------------------------------------------------------------
                         ORCA SCF GRADIENT CALCULATION
------------------------------------------------------------------------------

Nuc. rep. gradient        (SHARK) ... done (  0.0 sec)
HCore & Overlap gradient  (SHARK) ... done (  0.1 sec)
Split-RIJ-J gradient      (SHARK) ... done (  0.6 sec)
XC gradient                       ... done (  2.4 sec)
CPCM gradient                     ... done (  0.5 sec)

------------------
CARTESIAN GRADIENT
------------------

   1   C   :    0.003891324   -0.015334436   -0.002292201
   2   C   :    0.009943263   -0.005509230    0.000818237
   3   C   :    0.030211564   -0.033362817    0.008695340
   4   C   :   -0.005381672    0.013731459   -0.003074887
   5   C   :    0.010878854    0.013003426   -0.000472278
   6   C   :   -0.035069247   -0.011417570   -0.000798864
   7   Cl  :    0.058112146    0.017759831    0.002823589
   8   O   :    0.025880287    0.068611668    0.011086336
   9   O   :   -0.052998722    0.031209675   -0.030205950
  10   C   :    0.016688406   -0.000481992    0.007895800
  11   C   :    0.001287331   -0.020118213    0.022587392
  12   C   :   -0.010496160   -0.002152062   -0.007275812
  13   C   :    0.008434293    0.024381396   -0.012728019
  14   C   :    0.011623456    0.010024555    0.008444684
  15   C   :    0.004794983   -0.009723038    0.013174692
  16   Cl  :   -0.014936943   -0.048411762    0.026152410
  17   Cl  :   -0.021607593    0.015195082   -0.042932867
  18   H   :    0.008972208   -0.007561597   -0.001104893
  19   H   :   -0.004962012   -0.012415121    0.001661414
  20   H   :    0.001095464    0.010664031   -0.000064249
  21   H   :   -0.050395536   -0.036562596   -0.008316517
  22   H   :   -0.008946488   -0.006267956   -0.005347448
  23   H   :    0.004145037   -0.002795414    0.010421151
  24   H   :    0.008835757    0.007532681    0.000852940

Difference to translation invariance:
           :    0.0000000002   -0.0000000000   -0.0000000001

Difference to rotation invariance:
           :    0.0016978839   -0.0009654061   -0.0003628228

Norm of the Cartesian gradient     ...    0.1780426536
RMS gradient                       ...    0.0209825280
MAX gradient                       ...    0.0686116676

-------
TIMINGS
-------

Total SCF gradient time     ....        3.889 sec

One electron gradient       ....       0.076 sec  (  2.0%)
RI-J Coulomb gradient       ....       0.627 sec  ( 16.1%)
XC gradient                 ....       2.417 sec  ( 62.1%)
CPCM gradient               ....       0.508 sec  ( 13.1%)
   A-Matrix (El+Nuc)        ....       0.180 sec  (  4.6%)
   Potential                ....       0.328 sec  (  8.4%)

Maximum memory used throughout the entire SCFGRAD-calculation: 20.9 MB
------------------------------------------------------------------------------
                         ORCA GEOMETRY RELAXATION STEP
------------------------------------------------------------------------------

Reading the OPT-File                    .... done
Getting information on internals        .... done
Copying old internal coords+grads       .... done
Making the new internal coordinates     .... (2022 redundants) done
Validating the new internal coordinates .... (2022 redundants) done
Calculating the B-matrix                .... done
Calculating the G,G- and P matrices     .... done
Transforming gradient to internals      .... done
Projecting the internal gradient        .... done
Number of atoms                         ....  24
Number of internal coordinates          .... 118
Current Energy                          .... -1970.047412669 Eh
Current gradient norm                   ....     0.178042654 Eh/bohr
Maximum allowed component of the step   ....  0.300
Current trust radius                    ....  0.300
Evaluating the initial hessian          ....  (Almloef) done
Projecting the Hessian                  .... done
Forming the augmented Hessian           .... done
Diagonalizing the augmented Hessian     .... done
Last element of RFO vector              ....  0.940798509
Lowest eigenvalues of augmented Hessian:
 -0.056993942  0.021651704  0.024963302  0.025003089  0.025064501
Length of the computed step             ....  0.360296404
Warning: the length of the step is outside the trust region - taking restricted step instead
The input lambda is                     ....     0.019905
   iter:   5  x=    0.012158  g= 1143.592114 f(x)=     3.644229
   iter:  10  x=   -0.068551  g=    2.227826 f(x)=     0.072706
   iter:  15  x=   -0.118770  g=    0.403464 f(x)=     0.000000
The output lambda is                    ....    -0.118770 (16 iterations)
The final length of the internal step   ....  0.300000000
Converting the step to Cartesian space:
 Initial RMS(Int)=    0.0276172385
Transforming coordinates:
 Iter   0:  RMS(Cart)=    0.0839685209 RMS(Int)=    0.0277103077
done
Storing new coordinates                 .... done

                                .--------------------.
          ----------------------|Geometry convergence|-------------------------
          Item                value                   Tolerance       Converged
          ---------------------------------------------------------------------
          RMS gradient        0.0161388328            0.0001000000      NO
          MAX gradient        0.0620013014            0.0003000000      NO
          RMS step            0.0276172385            0.0020000000      NO
          MAX step            0.1129157988            0.0040000000      NO
          ........................................................
          Max(Bonds)      0.0598      Max(Angles)    1.62
          Max(Dihed)        2.00      Max(Improp)    0.00
          ---------------------------------------------------------------------

The optimization has not yet converged - more geometry cycles are needed


    ---------------------------------------------------------------------------
                         Redundant Internal Coordinates
                            (Angstroem and degrees)

        Definition                    Value    dE/dq     Step     New-Value
    ----------------------------------------------------------------------------
     1. B(C   1,C   0)                1.3955 -0.017924  0.0125    1.4080   
     2. B(C   2,C   1)                1.3984 -0.025313  0.0186    1.4170   
     3. B(C   3,C   2)                1.3954 -0.046661  0.0357    1.4310   
     4. B(C   4,C   3)                1.3962 -0.029858  0.0221    1.4184   
     5. B(C   5,C   4)                1.3898 -0.028138  0.0199    1.4097   
     6. B(C   5,C   0)                1.3954 -0.027966  0.0197    1.4150   
     7. B(Cl  6,C   5)                1.7181 -0.060831  0.0598    1.7779   
     8. B(O   7,C   3)                1.3671 -0.039695  0.0299    1.3970   
     9. B(O   8,C   2)                1.3788 -0.051449  0.0391    1.4179   
    10. B(C   9,O   8)                1.3840 -0.037737  0.0289    1.4129   
    11. B(C  10,C   9)                1.4009 -0.033103  0.0244    1.4253   
    12. B(C  11,C  10)                1.3994 -0.018913  0.0140    1.4134   
    13. B(C  12,C  11)                1.3910 -0.028561  0.0205    1.4114   
    14. B(C  13,C  12)                1.3934 -0.029473  0.0212    1.4145   
    15. B(C  14,C   9)                1.4031 -0.026196  0.0193    1.4224   
    16. B(C  14,C  13)                1.3966 -0.014258  0.0103    1.4068   
    17. B(Cl 15,C  12)                1.7204 -0.057006  0.0564    1.7767   
    18. B(Cl 16,C  10)                1.7268 -0.050244  0.0506    1.7774   
    19. B(H  17,C   0)                1.0866 -0.011713  0.0128    1.0994   
    20. B(H  18,C   1)                1.0856 -0.013077  0.0143    1.0998   
    21. B(H  19,C   4)                1.0877 -0.010650  0.0117    1.0994   
    22. B(H  20,O   8)                2.2511 -0.000257 -0.0071    2.2440   
    23. B(H  20,O   7)                0.9753 -0.062001  0.0532    1.0285   
    24. B(H  21,C  11)                1.0873 -0.012113  0.0133    1.1006   
    25. B(H  22,C  13)                1.0882 -0.011449  0.0126    1.1008   
    26. B(H  23,C  14)                1.0882 -0.010973  0.0121    1.1002   
    27. A(C   1,C   0,H  17)          119.62 -0.000792    0.14    119.75   
    28. A(C   1,C   0,C   5)          119.97  0.000255   -0.11    119.86   
    29. A(C   5,C   0,H  17)          120.41  0.000533   -0.02    120.39   
    30. A(C   0,C   1,H  18)          118.97 -0.001308    0.16    119.14   
    31. A(C   2,C   1,H  18)          121.00  0.003447   -0.42    120.58   
    32. A(C   0,C   1,C   2)          120.01 -0.002169    0.26    120.27   
    33. A(C   1,C   2,C   3)          119.13 -0.002458    0.26    119.40   
    34. A(C   1,C   2,O   8)          123.25 -0.011946    1.00    124.25   
    35. A(C   3,C   2,O   8)          117.61  0.014438   -1.27    116.33   
    36. A(C   2,C   3,C   4)          120.93  0.008890   -0.93    120.00   
    37. A(C   4,C   3,O   7)          117.40 -0.006643    0.36    117.77   
    38. A(C   2,C   3,O   7)          121.67 -0.002244    0.56    122.23   
    39. A(C   3,C   4,C   5)          119.22 -0.000701    0.20    119.42   
    40. A(C   5,C   4,H  19)          121.07 -0.000913    0.05    121.12   
    41. A(C   3,C   4,H  19)          119.71  0.001614   -0.25    119.46   
    42. A(C   0,C   5,Cl  6)          119.65  0.001215   -0.11    119.54   
    43. A(C   0,C   5,C   4)          120.44 -0.003986    0.38    120.82   
    44. A(C   4,C   5,Cl  6)          119.92  0.002771   -0.27    119.64   
    45. A(C   3,O   7,H  20)          107.10  0.016847   -1.62    105.48   
    46. A(C   2,O   8,C   9)          118.44  0.006959   -0.74    117.69   
    47. A(O   8,C   9,C  10)          118.32  0.004945   -0.53    117.79   
    48. A(C  10,C   9,C  14)          119.32  0.002854   -0.31    119.01   
    49. A(O   8,C   9,C  14)          122.34 -0.007746    0.82    123.16   
    50. A(C   9,C  10,C  11)          120.32 -0.001022    0.13    120.45   
    51. A(C  11,C  10,Cl 16)          118.37 -0.006228    0.66    119.03   
    52. A(C   9,C  10,Cl 16)          121.30  0.007245   -0.78    120.52   
    53. A(C  12,C  11,H  21)          120.24 -0.001786    0.19    120.43   
    54. A(C  10,C  11,H  21)          120.11  0.000627   -0.10    120.02   
    55. A(C  10,C  11,C  12)          119.65  0.001157   -0.10    119.55   
    56. A(C  13,C  12,Cl 15)          119.58 -0.001576    0.16    119.74   
    57. A(C  11,C  12,Cl 15)          119.83  0.001410   -0.16    119.68   
    58. A(C  11,C  12,C  13)          120.59  0.000166   -0.01    120.59   
    59. A(C  12,C  13,C  14)          119.81 -0.000254    0.01    119.82   
    60. A(C  14,C  13,H  22)          119.68 -0.000493    0.07    119.75   
    61. A(C  12,C  13,H  22)          120.52  0.000747   -0.08    120.43   
    62. A(C   9,C  14,C  13)          120.16 -0.002983    0.31    120.47   
    63. A(C  13,C  14,H  23)          118.83 -0.002007    0.28    119.10   
    64. A(C   9,C  14,H  23)          120.99  0.004967   -0.57    120.42   
    65. D(C   2,C   1,C   0,H  17)   -177.00  0.001225   -0.51   -177.52   
    66. D(H  18,C   1,C   0,H  17)      1.34  0.000116   -0.06      1.28   
    67. D(C   2,C   1,C   0,C   5)      2.28  0.000892   -0.36      1.92   
    68. D(H  18,C   1,C   0,C   5)   -179.37 -0.000216    0.09   -179.28   
    69. D(C   3,C   2,C   1,H  18)    175.57 -0.000397    0.20    175.77   
    70. D(O   8,C   2,C   1,H  18)     -3.68 -0.003690    1.42     -2.26   
    71. D(O   8,C   2,C   1,C   0)    174.63 -0.004904    1.89    176.52   
    72. D(C   3,C   2,C   1,C   0)     -6.11 -0.001610    0.67     -5.44   
    73. D(O   7,C   3,C   2,O   8)      4.94  0.005200   -2.00      2.94   
    74. D(O   7,C   3,C   2,C   1)   -174.35  0.002282   -0.87   -175.22   
    75. D(C   4,C   3,C   2,O   8)   -174.71  0.004738   -1.78   -176.49   
    76. D(C   4,C   3,C   2,C   1)      6.00  0.001820   -0.65      5.35   
    77. D(H  19,C   4,C   3,C   2)    177.87 -0.000539    0.16    178.03   
    78. D(C   5,C   4,C   3,O   7)    178.36 -0.001157    0.45    178.81   
    79. D(C   5,C   4,C   3,C   2)     -1.97 -0.000702    0.23     -1.74   
    80. D(H  19,C   4,C   3,O   7)     -1.79 -0.000994    0.37     -1.42   
    81. D(Cl  6,C   5,C   4,H  19)     -1.44 -0.000625    0.22     -1.23   
    82. D(C   0,C   5,C   4,H  19)    178.19 -0.000637    0.21    178.40   
    83. D(C   0,C   5,C   4,C   3)     -1.96 -0.000467    0.13     -1.83   
    84. D(Cl  6,C   5,C   0,H  17)      0.72 -0.000340    0.11      0.83   
    85. D(Cl  6,C   5,C   0,C   1)   -178.56  0.000005   -0.04   -178.60   
    86. D(Cl  6,C   5,C   4,C   3)    178.40 -0.000456    0.14    178.54   
    87. D(C   4,C   5,C   0,H  17)   -178.92 -0.000334    0.12   -178.80   
    88. D(C   4,C   5,C   0,C   1)      1.81  0.000010   -0.03      1.77   
    89. D(H  20,O   7,C   3,C   4)   -167.94  0.005310   -1.92   -169.86   
    90. D(H  20,O   7,C   3,C   2)     12.39  0.004812   -1.70     10.70   
    91. D(C   9,O   8,C   2,C   3)    145.46 -0.001920    0.73    146.19   
    92. D(C   9,O   8,C   2,C   1)    -35.28  0.001211   -0.46    -35.73   
    93. D(C  14,C   9,O   8,C   2)    -39.37 -0.001138    0.45    -38.92   
    94. D(C  10,C   9,O   8,C   2)    142.20 -0.003486    1.38    143.58   
    95. D(C  11,C  10,C   9,O   8)   -178.20  0.003023   -1.22   -179.42   
    96. D(Cl 16,C  10,C   9,C  14)   -177.18  0.000339   -0.12   -177.30   
[...]

-----------------------
MULLIKEN ATOMIC CHARGES
-----------------------
   0 C :   -0.081147
   1 C :   -0.079168
   2 C :    0.052153
   3 C :    0.074312
   4 C :   -0.091137
   5 C :    0.024857
   6 Cl:   -0.144947
   7 O :   -0.190458
   8 O :   -0.135571
   9 C :    0.093098
  10 C :    0.021493
  11 C :   -0.061609
  12 C :    0.025827
  13 C :   -0.061151
  14 C :   -0.075542
  15 Cl:   -0.124861
  16 Cl:   -0.114111
  17 H :    0.099270
  18 H :    0.103660
  19 H :    0.103727
  20 H :    0.219410
  21 H :    0.120330
  22 H :    0.111358
  23 H :    0.110207
Sum of atomic charges:   -0.0000000

--------------------------------
MULLIKEN REDUCED ORBITAL CHARGES
--------------------------------
  0 C s       :     3.152021  s :     3.152021
      pz      :     1.046951  p :     2.929126
      px      :     0.964256
      py      :     0.917918

  1 C s       :     3.158830  s :     3.158830
      pz      :     1.013193  p :     2.920339
      px      :     0.921334
      py      :     0.985812

  2 C s       :     3.141710  s :     3.141710
      pz      :     1.106925  p :     2.806137
      px      :     0.772234
      py      :     0.926978

  3 C s       :     3.140891  s :     3.140891
      pz      :     1.033948  p :     2.784797
      px      :     0.848837
      py      :     0.902012

  4 C s       :     3.150200  s :     3.150200
      pz      :     1.062061  p :     2.940937
      px      :     0.898945
      py      :     0.979930

  5 C s       :     3.186865  s :     3.186865
      pz      :     1.067523  p :     2.788279
      px      :     0.789931
      py      :     0.930825

  6 Cls       :     5.968385  s :     5.968385
      pz      :     3.949439  p :    11.176562
      px      :     3.380077
      py      :     3.847046

  7 O s       :     3.881783  s :     3.881783
      pz      :     1.764067  p :     4.308675
      px      :     1.130959
      py      :     1.413649

  8 O s       :     3.848352  s :     3.848352
      pz      :     1.549816  p :     4.287219
      px      :     1.272902
      py      :     1.464501

  9 C s       :     3.142444  s :     3.142444
      pz      :     0.913377  p :     2.764458
      px      :     0.948493
      py      :     0.902588

 10 C s       :     3.179375  s :     3.179375
      pz      :     0.859485  p :     2.799132
      px      :     0.935447
      py      :     1.004200

 11 C s       :     3.156675  s :     3.156675
      pz      :     0.936558  p :     2.904934
      px      :     0.998521
      py      :     0.969856

 12 C s       :     3.180287  s :     3.180287
      pz      :     0.920715  p :     2.793886
      px      :     0.958073
      py      :     0.915098

 13 C s       :     3.159059  s :     3.159059
      pz      :     0.994677  p :     2.902092
      px      :     0.943076
      py      :     0.964339

 14 C s       :     3.157145  s :     3.157145
      pz      :     0.931311  p :     2.918397
      px      :     0.999845
      py      :     0.987242

 15 Cls       :     5.968218  s :     5.968218
      pz      :     3.719190  p :    11.156643
      px      :     3.855885
      py      :     3.581568

 16 Cls       :     5.968282  s :     5.968282
      pz      :     3.443046  p :    11.145829
      px      :     3.805385
      py      :     3.897399

 17 H s       :     0.900730  s :     0.900730

 18 H s       :     0.896340  s :     0.896340

 19 H s       :     0.896273  s :     0.896273

 20 H s       :     0.780590  s :     0.780590

 21 H s       :     0.879670  s :     0.879670

 22 H s       :     0.888642  s :     0.888642

 23 H s       :     0.889793  s :     0.889793



                     *******************************
                     * LOEWDIN POPULATION ANALYSIS *
                     *******************************

----------------------
LOEWDIN ATOMIC CHARGES
----------------------
   0 C :   -0.060799
   1 C :   -0.048601
   2 C :    0.024256
   3 C :    0.052102
   4 C :   -0.077650
   5 C :    0.023407
   6 Cl:   -0.112523
   7 O :   -0.106096
   8 O :   -0.054316
   9 C :    0.066626
  10 C :    0.004839
  11 C :   -0.042794
  12 C :    0.018727
  13 C :   -0.032925
  14 C :   -0.049897
  15 Cl:   -0.092800
  16 Cl:   -0.081932
  17 H :    0.060093
  18 H :    0.063814
  19 H :    0.064377
  20 H :    0.166185
  21 H :    0.077259
  22 H :    0.069339
  23 H :    0.069312

-------------------------------
LOEWDIN REDUCED ORBITAL CHARGES
-------------------------------
  0 C s       :     3.033843  s :     3.033843
      pz      :     1.049598  p :     3.026957
      px      :     1.002002
      py      :     0.975357

  1 C s       :     3.036862  s :     3.036862
      pz      :     1.014630  p :     3.011739
      px      :     0.981478
      py      :     1.015632

  2 C s       :     3.062619  s :     3.062619
      pz      :     1.106778  p :     2.913126
      px      :     0.829169
      py      :     0.977179

  3 C s       :     3.059702  s :     3.059702
      pz      :     1.033095  p :     2.888196
      px      :     0.899767
      py      :     0.955334

  4 C s       :     3.034901  s :     3.034901
      pz      :     1.065004  p :     3.042749
      px      :     0.966260
      py      :     1.011485

  5 C s       :     3.089487  s :     3.089487
      pz      :     1.065621  p :     2.887107
      px      :     0.843884
      py      :     0.977602

  6 Cls       :     5.932012  s :     5.932012
      pz      :     3.948093  p :    11.180511
      px      :     3.384329
      py      :     3.848089

  7 O s       :     3.758654  s :     3.758654
      pz      :     1.764617  p :     4.347442
      px      :     1.156855
      py      :     1.425970

  8 O s       :     3.733529  s :     3.733529
      pz      :     1.557929  p :     4.320787
      px      :     1.287899
      py      :     1.474959

  9 C s       :     3.061700  s :     3.061700
      pz      :     0.951556  p :     2.871675
      px      :     0.987816
      py      :     0.932303

 10 C s       :     3.088362  s :     3.088362
      pz      :     0.900128  p :     2.906799
      px      :     0.977184
      py      :     1.029486

 11 C s       :     3.038896  s :     3.038896
      pz      :     0.984135  p :     3.003898
      px      :     1.020547
      py      :     0.999217

 12 C s       :     3.084979  s :     3.084979
      pz      :     0.958280  p :     2.896294
      px      :     0.994980
      py      :     0.943034

 13 C s       :     3.037733  s :     3.037733
      pz      :     1.015916  p :     2.995193
      px      :     0.986019
      py      :     0.993258

 14 C s       :     3.037977  s :     3.037977
      pz      :     0.977489  p :     3.011920
      px      :     1.022400
      py      :     1.012030

 15 Cls       :     5.930943  s :     5.930943
      pz      :     3.721075  p :    11.161857
      px      :     3.856631
      py      :     3.584152

 16 Cls       :     5.930726  s :     5.930726
      pz      :     3.447328  p :    11.151207
      px      :     3.806554
      py      :     3.897325

 17 H s       :     0.939907  s :     0.939907

 18 H s       :     0.936186  s :     0.936186

 19 H s       :     0.935623  s :     0.935623

 20 H s       :     0.833815  s :     0.833815

 21 H s       :     0.922741  s :     0.922741

 22 H s       :     0.930661  s :     0.930661

 23 H s       :     0.930688  s :     0.930688



                      *****************************
                      * MAYER POPULATION ANALYSIS *
                      *****************************

  NA   - Mulliken gross atomic population
  ZA   - Total nuclear charge
  QA   - Mulliken gross atomic charge
  VA   - Mayer's total valence
  BVA  - Mayer's bonded valence
  FA   - Mayer's free valence

  ATOM       NA         ZA         QA         VA         BVA        FA
  0 C      6.0811     6.0000    -0.0811     3.9570     3.9570    -0.0000
  1 C      6.0792     6.0000    -0.0792     3.9606     3.9606    -0.0000
  2 C      5.9478     6.0000     0.0522     3.8861     3.8861    -0.0000
  3 C      5.9257     6.0000     0.0743     3.9294     3.9294    -0.0000
  4 C      6.0911     6.0000    -0.0911     3.9546     3.9546     0.0000
  5 C      5.9751     6.0000     0.0249     3.8940     3.8940    -0.0000
  6 Cl    17.1449    17.0000    -0.1449     1.0778     1.0778     0.0000
  7 O      8.1905     8.0000    -0.1905     2.3196     2.3196     0.0000
  8 O      8.1356     8.0000    -0.1356     2.4007     2.4007    -0.0000
  9 C      5.9069     6.0000     0.0931     3.9069     3.9069    -0.0000
 10 C      5.9785     6.0000     0.0215     3.8982     3.8982     0.0000
 11 C      6.0616     6.0000    -0.0616     3.9560     3.9560    -0.0000
 12 C      5.9742     6.0000     0.0258     3.8995     3.8995    -0.0000
 13 C      6.0612     6.0000    -0.0612     3.9588     3.9588    -0.0000
 14 C      6.0755     6.0000    -0.0755     3.9572     3.9572    -0.0000
 15 Cl    17.1249    17.0000    -0.1249     1.0931     1.0931    -0.0000
 16 Cl    17.1141    17.0000    -0.1141     1.1017     1.1017     0.0000
 17 H      0.9007     1.0000     0.0993     0.9901     0.9901    -0.0000
 18 H      0.8963     1.0000     0.1037     0.9893     0.9893    -0.0000
 19 H      0.8963     1.0000     0.1037     0.9892     0.9892    -0.0000
 20 H      0.7806     1.0000     0.2194     0.9519     0.9519     0.0000
 21 H      0.8797     1.0000     0.1203     0.9855     0.9855    -0.0000
 22 H      0.8886     1.0000     0.1114     0.9876     0.9876     0.0000
 23 H      0.8898     1.0000     0.1102     0.9879     0.9879    -0.0000

  Mayer bond orders larger than 0.100000
B(  0-C ,  1-C ) :   1.3957 B(  0-C ,  5-C ) :   1.3888 B(  0-C , 17-H ) :   0.9555 
B(  1-C ,  2-C ) :   1.4104 B(  1-C , 18-H ) :   0.9528 B(  2-C ,  3-C ) :   1.2561 
B(  2-C ,  8-O ) :   0.9603 B(  3-C ,  4-C ) :   1.3277 B(  3-C ,  7-O ) :   1.1688 
B(  4-C ,  5-C ) :   1.4069 B(  4-C , 19-H ) :   0.9537 B(  5-C ,  6-Cl) :   0.9460 
B(  7-O , 20-H ) :   0.8454 B(  8-O ,  9-C ) :   1.0218 B(  9-C , 10-C ) :   1.3101 
B(  9-C , 14-C ) :   1.3515 B( 10-C , 11-C ) :   1.4154 B( 10-C , 16-Cl) :   0.9592 
B( 11-C , 12-C ) :   1.3812 B( 11-C , 14-C ) :   0.1010 B( 11-C , 21-H ) :   0.9500 
B( 12-C , 13-C ) :   1.3882 B( 12-C , 15-Cl) :   0.9565 B( 13-C , 14-C ) :   1.4317 
B( 13-C , 22-H ) :   0.9530 B( 14-C , 23-H ) :   0.9468 

-------
TIMINGS
-------

Total SCF time: 0 days 0 hours 0 min 4 sec 

Total time                  ....       4.194 sec
Sum of individual times     ....       4.125 sec  ( 98.4%)

SCF preparation             ....       0.202 sec  (  4.8%)
Fock matrix formation       ....       3.869 sec  ( 92.3%)
  Startup                   ....       0.006 sec  (  0.2% of F)
  Split-RI-J                ....       0.792 sec  ( 20.5% of F)
  XC integration            ....       1.600 sec  ( 41.4% of F)
    Basis function eval.    ....       0.419 sec  ( 26.2% of XC)
    Density eval.           ....       0.448 sec  ( 28.0% of XC)
    XC-Functional eval.     ....       0.257 sec  ( 16.1% of XC)
    XC-Potential eval.      ....       0.315 sec  ( 19.7% of XC)
  CPCM terms                ....       1.447 sec  ( 37.4% of F)
Diagonalization             ....       0.000 sec  (  0.0%)
Density matrix formation    ....       0.008 sec  (  0.2%)
Total Energy calculation    ....       0.003 sec  (  0.1%)
Population analysis         ....       0.022 sec  (  0.5%)
Orbital Transformation      ....       0.003 sec  (  0.1%)
Orbital Orthonormalization  ....       0.000 sec  (  0.0%)
DIIS solution               ....       0.004 sec  (  0.1%)
SOSCF solution              ....       0.014 sec  (  0.3%)
Finished LeanSCF after   4.3 sec

Maximum memory used throughout the entire LEANSCF-calculation: 58.8 MB

-------------------------   --------------------
FINAL SINGLE POINT ENERGY     -1970.090869539410
-------------------------   --------------------

                                *** OPTIMIZATION RUN DONE ***


------------------------------------------------------------------------------
                              ORCA PROPERTY CALCULATIONS
------------------------------------------------------------------------------

GBWName                                 ... Triclosan\Triclosan_TPSS_STO-3G\Triclosan_TPSS_STO-3G.orcainp.gbw
Number of atoms                         ...     24
Number of basis functions               ...    104
Max core memory                         ...   1024 MB

Electric properties:
Dipole moment                           ... YES
Quadrupole moment                       ...  NO
Static polarizability (Dipole/Dipole)   ...  NO
Static polarizability (Dipole/Quad.)    ...  NO
Static polarizability (Quad./Quad.)     ...  NO
Static polarizability (Velocity)        ...  NO

Atomic electric properties:
Dipole moment                           ...  NO
Quadrupole moment                       ...  NO
Static polarizability                   ...  NO

Choice of electric origin               ... Center of mass
Position of electric origin             ...     4.705956     3.759898    -1.062193

General magnetic properties:
Magnetizability                         ...  NO

EPR properties:
g-Tensor (aka g-matrix)                 ...  NO
Zero-Field splitting spin-orbit         ...  NO
Zero-field splitting spin-spin          ...  NO
Hyperfine couplings                     ...  NO (   0 nuclei)
Quadrupole couplings                    ...  NO (   0 nuclei)
Contact density                         ...  NO (   0 nuclei)

NMR properties:
Chemical shifts                         ...  NO (   0 nuclei)
Spin-rotation constants                 ...  NO (   0 nuclei)
Spin-spin couplings                     ...  NO (   0 nuclei,    0 pairs)

Choice of magnetic origin               ... GIAO
Position of magnetic origin             ...     0.000000     0.000000     0.000000

Properties with geometric perturbations:
SCF Hessian                             ...  NO
IR spectrum                             ...  NO
VCD spectrum                            ...  NO
X-ray spectroscopy properties:
SCF XES/XAS/RIXS spectra                ...  NO


-------------
DIPOLE MOMENT
-------------

Method             : SCF
Type of density    : Electron Density
Multiplicity       :   1
Irrep              :   0
Energy             : -1970.0908695394100505 Eh
Relativity type    : 
Basis              : AO
                                X                 Y                 Z
Electronic contribution:      5.225507205       2.557705446       0.886553919
Nuclear contribution   :     -5.026191881      -2.081687990      -1.221947267
                        -----------------------------------------
Total Dipole Moment    :      0.199315325       0.476017456      -0.335393348
                        -----------------------------------------
Magnitude (a.u.)       :      0.615473732
Magnitude (Debye)      :      1.564409902



--------------------
Rotational spectrum 
--------------------
 
Rotational constants in cm-1:             0.021217             0.004782             0.004138 
Rotational constants in MHz :           636.069852           143.370124           124.041122 

Dipole components along the rotational axes: 
x,y,z [a.u.] :    -0.516966    -0.333527     0.017719 
x,y,z [Debye]:    -1.314023    -0.847758     0.045039 

 

Dipole moment calculation done in   0.0 sec 

Maximum memory used throughout the entire PROP-calculation: 8.5 MB

--------------------------------
SUGGESTED CITATIONS FOR THIS RUN
--------------------------------

Below you find a list of papers that are relevant to this ORCA run
We neither can nor want to force you to cite these papers, but we appreciate if you do
You receive ORCA, which is the product of decades of hard work by many enthusiastic individuals, for free
The only thing we kindly ask in return is that you cite our papers,
We deeply appreciate it, if you show your appreciation for ORCA by not just citing the generic ORCA reference.

Please note that relegating all ORCA citations to the supporting information does *not* help us.
SI sections are not indexed - citations you put there will not count into any citation statistics
But we need these citations in order to attract the funding resources that allow us to do what we are doing

Therefore, if you are a happy ORCA user, please consider citing a few of the papers listed below in the main body of your paper

In addition to the list printed below, the program has created the file Triclosan\Triclosan_TPSS_STO-3G\Triclosan_TPSS_STO-3G.orcainp.bibtex that contains the list in bibtex format
You can import this file easily into all common literature databanks and citation aid programs


List of essential papers. We consider these as the minimum necessary citations

  1. Neese,F.
     Software update: the ORCA program system, version 5.0
     WIRES Comput. Molec. Sci., 2022 12(1)e1606
     doi.org/10.1002/wcms.1606

List of papers to cite with high priority. The work reported in these papers was absolutely
necessary for this run to complete.
Our perspective: the developers of density functionals and basis sets usually get cited in chemistry papers
Good! But without the algorithms to do something with them, the functionals or basis sets would not do anything.
Hence, in our opinion, the algorithm design and method developments papers are equally worthy of getting cited

  1. Neese,F.
     An improvement of the resolution of the identity approximation for the formation of the Coulomb matrix
     J. Comp. Chem., 2003 24(14)1740-1747
     doi.org/10.1002/jcc.10318
  2. Garcia-Rates,M.; Neese,F.
     Effect of the Solute Cavity on the Solvation Energy and its Derivatives within the Framework of the Gaussian Charge Scheme
     J. Comput. Chem., 2020 41 922-939
     doi.org/10.1002/jcc.26139
  3. Neese,F.
     The SHARK Integral Generation and Digestion System
     J. Comp. Chem., 2022  1-16
     doi.org/10.1002/jcc.26942

List of suggested additional citations. These are papers that are important in the 'surrounding' of 
of this run, or papers that preceded the highly important papers. If you like your results we are grateful for a citation.

  1. Neese,F.
     The ORCA program system
     WIRES Comput. Molec. Sci., 2012 2(1)73-78
     doi.org/10.1002/wcms.81
  2. Neese,F.
     Software update: the ORCA program system, version 4.0
     WIRES Comput. Molec. Sci., 2018 8(1)1-6
     doi.org/10.1002/wcms.1327
  3. Neese,F.; Wennmohs,F.; Becker,U.; Riplinger,C.
     The ORCA quantum chemistry program package
     J. Chem. Phys., 2020 152 Art. No. L224108
     doi.org/10.1063/5.0004608

List of optional additional citations

  1. Neese,F.
     Approximate second-order SCF convergence for spin unrestricted wavefunctions
     Chem. Phys. Lett., 2000 325(1-3)93-98
     doi.org/10.1016/s0009-2614(00)00662-x

Timings for individual modules:

Sum of individual times          ...      149.960 sec (=   2.499 min)
Startup calculation              ...        8.726 sec (=   0.145 min)   5.8 %
SCF iterations                   ...       93.970 sec (=   1.566 min)  62.7 %
Property calculations            ...        0.067 sec (=   0.001 min)   0.0 %
SCF Gradient evaluation          ...       47.098 sec (=   0.785 min)  31.4 %
Geometry relaxation              ...        0.099 sec (=   0.002 min)   0.1 %
                             ****ORCA TERMINATED NORMALLY****
TOTAL RUN TIME: 0 days 0 hours 2 minutes 31 seconds 61 msec
