
                                 *****************
                                 * O   R   C   A *
                                 *****************

                                            #,                                       
                                            ###                                      
                                            ####                                     
                                            #####                                    
                                            ######                                   
                                           ########,                                 
                                     ,,################,,,,,                         
                               ,,#################################,,                 
                          ,,##########################################,,             
                       ,#########################################, ''#####,          
                    ,#############################################,,   '####,        
                  ,##################################################,,,,####,       
                ,###########''''           ''''###############################       
              ,#####''   ,,,,##########,,,,          '''####'''          '####       
            ,##' ,,,,###########################,,,                        '##       
           ' ,,###''''                  '''############,,,                           
         ,,##''                                '''############,,,,        ,,,,,,###''
      ,#''                                            '''#######################'''  
     '                                                          ''''####''''         
             ,#######,   #######,   ,#######,      ##                                
            ,#'     '#,  ##    ##  ,#'     '#,    #''#        ,####,   ,####,        
            ##       ##  ##   ,#'  ##            #'  '#       #'       #'  '#        
            ##       ##  #######   ##           ,######,      #####,   #    #        
            '#,     ,#'  ##    ##  '#,     ,#' ,#      #,     #,   #   #,  ,#        
             '#######'   ##     ##  '#######'  #'      '#     '####' # '####'        



                #########################################################
                #                        -***-                          #
                #          Department of theory and spectroscopy        #
                #                                                       #
                #                      Frank Neese                      #
                #                                                       #
                #     Directorship, Architecture, Infrastructure        #
                #                    SHARK, DRIVERS                     #
                #        Core code/Algorithms in most modules           #
                #                                                       #
                #        Max Planck Institute fuer Kohlenforschung      #
                #                Kaiser Wilhelm Platz 1                 #
                #                 D-45470 Muelheim/Ruhr                 #
                #                      Germany                          #
                #                                                       #
                #                  All rights reserved                  #
                #                        -***-                          #
                #########################################################


                         Program Version 6.0.0  -   RELEASE   -


 With contributions from (in alphabetic order):
   Daniel Aravena         : Magnetic Suceptibility
   Michael Atanasov       : Ab Initio Ligand Field Theory (pilot matlab implementation)
   Alexander A. Auer      : GIAO ZORA, VPT2 properties, NMR spectrum
   Ute Becker             : All parallelization in ORCA, NUMFREQ, NUMCALC
   Giovanni Bistoni       : ED, misc. LED, open-shell LED, HFLD
   Martin Brehm           : Molecular dynamics
   Dmytro Bykov           : pre 5.0 version of the SCF Hessian
   Marcos Casanova-Páez   : Triplet and SCS-CIS(D). UHF-(DLPNO)-IP/EA/STEOM-CCSD. UHF-CVS-IP/STEOM-CCSD
   Vijay G. Chilkuri      : MRCI spin determinant printing, contributions to CSF-ICE
   Pauline Colinet        : FMM embedding
   Dipayan Datta          : RHF DLPNO-CCSD density
   Achintya Kumar Dutta   : EOM-CC, STEOM-CC
   Nicolas Foglia         : Exact transition moments, OPA infrastructure, MCD improvements
   Dmitry Ganyushin       : Spin-Orbit,Spin-Spin,Magnetic field MRCI
   Miquel Garcia          : C-PCM and meta-GGA Hessian, CCSD/C-PCM, Gaussian charge scheme
   Tiago L. C. Gouveia    : GS-ROHF, GS-ROCIS
   Yang Guo               : DLPNO-NEVPT2, F12-NEVPT2, CIM, IAO-localization
   Andreas Hansen         : Spin unrestricted coupled pair/coupled cluster methods
   Ingolf Harden          : AUTO-CI MPn and infrastructure 
   Benjamin Helmich-Paris : MC-RPA, TRAH-(SCF,CASSCF), AVAS, COSX integrals, SCF dyn. polar.
   Lee Huntington         : MR-EOM, pCC
   Robert Izsak           : Overlap fitted RIJCOSX, COSX-SCS-MP3, EOM
   Riya Kayal             : Wick's Theorem for AUTO-CI, AUTO-CI UHF-CCSDT
   Emily Kempfer          : AUTO-CI, RHF CISDT and CCSDT
   Christian Kollmar      : KDIIS, OOCD, Brueckner-CCSD(T), CCSD density, CASPT2, CASPT2-K, improved NEVPT2
   Axel Koslowski         : Symmetry handling
   Simone Kossmann        : Meta GGA functionals, TD-DFT gradient, OOMP2, (MP2 Hessian; deprecated post 5.0)
   Lucas Lang             : DCDCAS
   Marvin Lechner         : AUTO-CI (C++ implementation), FIC-MRCC
   Spencer Leger          : CASSCF response
   Dagmar Lenk            : GEPOL surface, SMD, ORCA-2-JSON
   Dimitrios Liakos       : Extrapolation schemes; Compound Job, initial MDCI parallelization
   Dimitrios Manganas     : Further ROCIS development; embedding schemes. LFT, Crystal Embedding
   Dimitrios Pantazis     : SARC Basis sets
   Anastasios Papadopoulos: AUTO-CI, single reference methods and gradients
   Taras Petrenko         : pre 6.0 DFT Hessian and TD-DFT gradient, (ASA, deprecated), ECA, 1-Electron XAS/XES, NRVS
   Peter Pinski           : DLPNO-MP2, DLPNO-MP2 Gradient
   Christoph Reimann      : Effective Core Potentials
   Marius Retegan         : Local ZFS, SOC
   Christoph Riplinger    : Optimizer, TS searches, QM/MM, DLPNO-CCSD(T), (RO)-DLPNO pert. Triples
   Michael Roemelt        : Original ROCIS implementation
   Masaaki Saitow         : Open-shell DLPNO-CCSD energy and density
   Barbara Sandhoefer     : DKH picture change effects
   Kantharuban Sivalingam : CASSCF convergence/infrastructure, NEVPT2 and variants, FIC-MRCI
   Bernardo de Souza      : ESD, SOC TD-DFT
   Georgi Stoychev        : AutoAux, RI-MP2 NMR, DLPNO-MP2 response, X2C
   Van Anh Tran           : RI-MP2 g-tensors
   Willem Van den Heuvel  : Paramagnetic NMR
   Zikuan Wang            : NOTCH, Electric field optimization 
   Frank Wennmohs         : Technical directorship and infrastructure
   Hang Xu                : AUTO-CI-Response properties 


 We gratefully acknowledge several colleagues who have allowed us to
 interface, adapt or use parts of their codes:
   Stefan Grimme, W. Hujo, H. Kruse, P. Pracht,  : VdW corrections, initial TS optimization,
                  C. Bannwarth, S. Ehlert,         DFT functionals, gCP, sTDA/sTD-DF
                  L. Wittmann, M. Mueller
   Ed Valeev, F. Pavosevic, A. Kumar             : LibInt (2-el integral package), F12 methods
   Garnet Chan, S. Sharma, J. Yang, R. Olivares  : DMRG
   Ulf Ekstrom                                   : XCFun DFT Library
   Mihaly Kallay                                 : mrcc  (arbitrary order and MRCC methods)
   Frank Weinhold                                : gennbo (NPA and NBO analysis)
   Simon Mueller                                 : openCOSMO-RS
   Christopher J. Cramer and Donald G. Truhlar   : smd solvation model
   Lars Goerigk                                  : TD-DFT with DH, B97 family of functionals
   V. Asgeirsson, H. Jonsson                     : NEB implementation
   FAccTs GmbH                                   : IRC, NEB, NEB-TS, DLPNO-Multilevel, CI-OPT
                                                   MM, QMMM, 2- and 3-layer-ONIOM, Crystal-QMMM,
                                                   LR-CPCM, SF, NACMEs, symmetry and pop. for TD-DFT,
                                                   nearIR, NL-DFT gradient (VV10), updates on ESD,
                                                   ML-optimized integration grids, MBIS, APM,
                                                   GOAT, DOCKER, SOLVATOR, interface openCOSMO-RS
   S Lehtola, MJT Oliveira, MAL Marques          : LibXC Library
   Liviu Ungur et al                             : ANISO software


 Your calculation uses the libint2 library for the computation of 2-el integrals
 For citations please refer to: http://libint.valeyev.net

 Your ORCA version has been built with support for libXC version: 6.2.2
 For citations please refer to: https://libxc.gitlab.io

 This ORCA versions uses:
   CBLAS   interface :  Fast vector & matrix operations
   LAPACKE interface :  Fast linear algebra routines
   Shared memory     :  Shared parallel matrices


Warning: RI is on but no J-basis has been assigned. Assigning Def2/J (nothing to worry about!)
================================================================================

----- Orbital basis set information -----
Your calculation utilizes the basis: def2-TZVP
   F. Weigend and R. Ahlrichs, Phys. Chem. Chem. Phys. 7, 3297 (2005).

----- AuxJ basis set information -----
Your calculation utilizes the auxiliary basis: def2/J
   F. Weigend, Phys. Chem. Chem. Phys. 8, 1057 (2006).

================================================================================
                                        WARNINGS
                       Please study these warnings very carefully!
================================================================================


WARNING: Geometry Optimization
  ===> : Switching off AutoStart
         For restart on a previous wavefunction, please use MOREAD

================================================================================
                                       INPUT FILE
================================================================================
NAME = Triclosan\Triclosan_PBE_def2-TZVP\Triclosan_PBE_def2-TZVP.orcainp
|  1> # ORCA input file
|  2> # 
|  3> !PBE def2-TZVP Opt CPCM(WATER)
|  4> * xyz 0 1
|  5>    C       -0.49838         1.45672         0.09896
|  6>    C        0.83636         1.86187         0.13987
|  7>    C        1.85850         0.90964         0.07692
|  8>    C        1.52705        -0.44553         0.10327
|  9>    C        0.19399        -0.85911         0.06588
| 10>    C       -0.81311         0.09845         0.04328
| 11>   Cl       -2.45804        -0.38995        -0.04430
| 12>    O        2.48623        -1.41804         0.15924
| 13>    O        3.19540         1.23915         0.00408
| 14>    C        3.55840         2.36555        -0.71342
| 15>    C        4.59924         3.16189        -0.21840
| 16>    C        4.97545         4.33057        -0.88996
| 17>    C        4.31222         4.69779        -2.05616
| 18>    C        3.30213         3.89395        -2.58058
| 19>    C        2.94419         2.71337        -1.92599
| 20>   Cl        4.74503         6.15332        -2.86475
| 21>   Cl        5.43890         2.74189         1.23085
| 22>    H       -1.28677         2.20447         0.09898
| 23>    H        1.06264         2.92223         0.19335
| 24>    H       -0.04081        -1.92109         0.05235
| 25>    H        3.32941        -0.97731         0.37369
| 26>    H        5.77651         4.95189        -0.49678
| 27>    H        2.78688         4.18033        -3.49530
| 28>    H        2.16802         2.08687        -2.36091
| 29> **                         ****END OF INPUT****
================================================================================

                       *****************************
                       * Geometry Optimization Run *
                       *****************************

Geometry optimization settings:
Update method            Update   .... BFGS
Choice of coordinates    CoordSys .... (2022) Redundant Internals
Initial Hessian          InHess   .... Almloef's Model
Max. no of cycles        MaxIter  .... 72

Convergence Tolerances:
Energy Change            TolE     ....  5.0000e-06 Eh
Max. Gradient            TolMAXG  ....  3.0000e-04 Eh/bohr
RMS Gradient             TolRMSG  ....  1.0000e-04 Eh/bohr
Max. Displacement        TolMAXD  ....  4.0000e-03 bohr
RMS Displacement         TolRMSD  ....  2.0000e-03 bohr
Strict Convergence                .... False

------------------------------------------------------------------------------
                        ORCA OPTIMIZATION COORDINATE SETUP
------------------------------------------------------------------------------

The optimization will be done in redundant internal coordinates (2022)
Making redundant internal coordinates   ...  (2022 redundants) done
Evaluating the initial hessian          ...  (Almloef) done
Evaluating the coordinates              ...  done
Calculating the B-matrix                .... done
Calculating the G-matrix                .... done
Diagonalizing the G-matrix              .... done
Small eigenvalue found = 5.189e-03
Small eigenvalue found = 1.845e-02
Small eigenvalue found = 2.339e-02
The first mode is                       ....   52
The number of degrees of freedom        ....   66

    -----------------------------------------------------------------
                    Redundant Internal Coordinates


    -----------------------------------------------------------------
         Definition                    Initial Value    Approx d2E/dq
    -----------------------------------------------------------------
      1. B(C   1,C   0)                  1.3955         0.612355   
      2. B(C   2,C   1)                  1.3984         0.605849   
      3. B(C   3,C   2)                  1.3954         0.612606   
      4. B(C   4,C   3)                  1.3962         0.610629   
      5. B(C   5,C   4)                  1.3898         0.625141   
      6. B(C   5,C   0)                  1.3954         0.612596   
      7. B(Cl  6,C   5)                  1.7181         0.419963   
      8. B(O   7,C   3)                  1.3671         0.608733   
      9. B(O   8,C   2)                  1.3788         0.583028   
     10. B(C   9,O   8)                  1.3840         0.572147   
     11. B(C  10,C   9)                  1.4009         0.600249   
     12. B(C  11,C  10)                  1.3994         0.603574   
     13. B(C  12,C  11)                  1.3910         0.622616   
     14. B(C  13,C  12)                  1.3934         0.617128   
     15. B(C  14,C   9)                  1.4031         0.595543   
     16. B(C  14,C  13)                  1.3966         0.609921   
     17. B(Cl 15,C  12)                  1.7204         0.416517   
     18. B(Cl 16,C  10)                  1.7268         0.406846   
     19. B(H  17,C   0)                  1.0866         0.364633   
     20. B(H  18,C   1)                  1.0856         0.366031   
     21. B(H  19,C   4)                  1.0877         0.363141   
     22. B(H  20,O   8)                  2.2511         0.004531   
     23. B(H  20,O   7)                  0.9753         0.491561   
     24. B(H  21,C  11)                  1.0873         0.363625   
     25. B(H  22,C  13)                  1.0882         0.362471   
     26. B(H  23,C  14)                  1.0882         0.362539   
     27. A(C   1,C   0,H  17)          119.6162         0.352915   
     28. A(C   1,C   0,C   5)          119.9682         0.432164   
     29. A(C   5,C   0,H  17)          120.4118         0.352938   
     30. A(C   0,C   1,H  18)          118.9740         0.353144   
     31. A(C   2,C   1,H  18)          120.9976         0.352506   
     32. A(C   0,C   1,C   2)          120.0073         0.431305   
     33. A(C   1,C   2,C   3)          119.1344         0.431337   
     34. A(C   1,C   2,O   8)          123.2546         0.424738   
     35. A(C   3,C   2,O   8)          117.6070         0.425582   
     36. A(C   2,C   3,C   4)          120.9279         0.431946   
     37. A(C   4,C   3,O   7)          117.4034         0.428636   
     38. A(C   2,C   3,O   7)          121.6678         0.428885   
     39. A(C   3,C   4,C   5)          119.2209         0.433522   
     40. A(C   5,C   4,H  19)          121.0675         0.353906   
     41. A(C   3,C   4,H  19)          119.7115         0.352502   
     42. A(C   0,C   5,Cl  6)          119.6487         0.422262   
     43. A(C   0,C   5,C   4)          120.4351         0.433773   
     44. A(C   4,C   5,Cl  6)          119.9152         0.423795   
     45. A(C   3,O   7,H  20)          107.1047         0.365416   
     46. A(C   2,O   8,C   9)          118.4377         0.417690   
     47. A(O   8,C   9,C  10)          118.3161         0.422608   
     48. A(C  10,C   9,C  14)          119.3218         0.428441   
     49. A(O   8,C   9,C  14)          122.3438         0.422014   
     50. A(C   9,C  10,C  11)          120.3239         0.429471   
     51. A(C  11,C  10,Cl 16)          118.3700         0.418768   
     52. A(C   9,C  10,Cl 16)          121.3041         0.418356   
     53. A(C  12,C  11,H  21)          120.2377         0.353744   
     54. A(C  10,C  11,H  21)          120.1142         0.351889   
     55. A(C  10,C  11,C  12)          119.6461         0.432302   
     56. A(C  13,C  12,Cl 15)          119.5757         0.422197   
     57. A(C  11,C  12,Cl 15)          119.8326         0.422865   
     58. A(C  11,C  12,C  13)          120.5911         0.434032   
     59. A(C  12,C  13,C  14)          119.8068         0.432427   
     60. A(C  14,C  13,H  22)          119.6764         0.352323   
     61. A(C  12,C  13,H  22)          120.5164         0.353024   
     62. A(C   9,C  14,C  13)          120.1619         0.429671   
     63. A(C  13,C  14,H  23)          118.8279         0.352334   
     64. A(C   9,C  14,H  23)          120.9938         0.350916   
     65. D(C   2,C   1,C   0,H  17)   -177.0031         0.025909   
     66. D(H  18,C   1,C   0,H  17)      1.3416         0.025909   
     67. D(C   2,C   1,C   0,C   5)      2.2818         0.025909   
     68. D(H  18,C   1,C   0,C   5)   -179.3735         0.025909   
     69. D(C   3,C   2,C   1,H  18)    175.5746         0.025331   
     70. D(O   8,C   2,C   1,H  18)     -3.6759         0.025331   
     71. D(O   8,C   2,C   1,C   0)    174.6347         0.025331   
     72. D(C   3,C   2,C   1,C   0)     -6.1148         0.025331   
     73. D(O   7,C   3,C   2,O   8)      4.9411         0.025932   
     74. D(O   7,C   3,C   2,C   1)   -174.3516         0.025932   
     75. D(C   4,C   3,C   2,O   8)   -174.7104         0.025932   
     76. D(C   4,C   3,C   2,C   1)      5.9969         0.025932   
     77. D(H  19,C   4,C   3,C   2)    177.8731         0.025755   
     78. D(C   5,C   4,C   3,O   7)    178.3616         0.025755   
     79. D(C   5,C   4,C   3,C   2)     -1.9726         0.025755   
     80. D(H  19,C   4,C   3,O   7)     -1.7928         0.025755   
     81. D(Cl  6,C   5,C   4,H  19)     -1.4413         0.027070   
     82. D(C   0,C   5,C   4,H  19)    178.1925         0.027070   
     83. D(C   0,C   5,C   4,C   3)     -1.9640         0.027070   
     84. D(Cl  6,C   5,C   0,H  17)      0.7193         0.025931   
     85. D(Cl  6,C   5,C   0,C   1)   -178.5598         0.025931   
     86. D(Cl  6,C   5,C   4,C   3)    178.4022         0.027070   
     87. D(C   4,C   5,C   0,H  17)   -178.9155         0.025931   
     88. D(C   4,C   5,C   0,C   1)      1.8053         0.025931   
     89. D(H  20,O   7,C   3,C   4)   -167.9419         0.027116   
     90. D(H  20,O   7,C   3,C   2)     12.3948         0.027116   
     91. D(C   9,O   8,C   2,C   3)    145.4603         0.027282   
     92. D(C   9,O   8,C   2,C   1)    -35.2785         0.027282   
     93. D(C  14,C   9,O   8,C   2)    -39.3694         0.026210   
     94. D(C  10,C   9,O   8,C   2)    142.2004         0.026210   
     95. D(C  11,C  10,C   9,O   8)   -178.1978         0.024839   
     96. D(Cl 16,C  10,C   9,C  14)   -177.1840         0.024839   
     97. D(Cl 16,C  10,C   9,O   8)      1.2949         0.024839   
     98. D(C  11,C  10,C   9,C  14)      3.3233         0.024839   
     99. D(H  21,C  11,C  10,Cl 16)     -0.1788         0.025130   
    100. D(H  21,C  11,C  10,C   9)    179.3286         0.025130   
    101. D(C  12,C  11,C  10,Cl 16)   -179.6682         0.025130   
    102. D(C  12,C  11,C  10,C   9)     -0.1608         0.025130   
    103. D(Cl 15,C  12,C  11,H  21)     -0.9707         0.026838   
    104. D(Cl 15,C  12,C  11,C  10)    178.5182         0.026838   
    105. D(C  13,C  12,C  11,H  21)    178.7584         0.026838   
    106. D(C  13,C  12,C  11,C  10)     -1.7528         0.026838   
    107. D(H  22,C  13,C  12,Cl 15)     -0.0147         0.026339   
    108. D(H  22,C  13,C  12,C  11)   -179.7444         0.026339   
    109. D(C  14,C  13,C  12,Cl 15)   -179.8112         0.026339   
    110. D(C  14,C  13,C  12,C  11)      0.4591         0.026339   
    111. D(H  23,C  14,C  13,H  22)      1.4971         0.025692   
    112. D(H  23,C  14,C  13,C  12)   -178.7046         0.025692   
    113. D(C   9,C  14,C  13,H  22)   -177.0456         0.025692   
    114. D(C   9,C  14,C  13,C  12)      2.7526         0.025692   
    115. D(H  23,C  14,C   9,C  10)    176.8704         0.024431   
    116. D(H  23,C  14,C   9,O   8)     -1.5445         0.024431   
    117. D(C  13,C  14,C   9,C  10)     -4.6189         0.024431   
    118. D(C  13,C  14,C   9,O   8)    176.9661         0.024431   
    -----------------------------------------------------------------

Number of atoms                         .... 24
Number of degrees of freedom            .... 118


         *************************************************************
         *                GEOMETRY OPTIMIZATION CYCLE   1            *
         *************************************************************
---------------------------------
CARTESIAN COORDINATES (ANGSTROEM)
---------------------------------
  C     -0.498380    1.456720    0.098960
  C      0.836360    1.861870    0.139870
  C      1.858500    0.909640    0.076920
  C      1.527050   -0.445530    0.103270
  C      0.193990   -0.859110    0.065880
  C     -0.813110    0.098450    0.043280
  Cl    -2.458040   -0.389950   -0.044300
  O      2.486230   -1.418040    0.159240
  O      3.195400    1.239150    0.004080
  C      3.558400    2.365550   -0.713420
  C      4.599240    3.161890   -0.218400
  C      4.975450    4.330570   -0.889960
  C      4.312220    4.697790   -2.056160
  C      3.302130    3.893950   -2.580580
  C      2.944190    2.713370   -1.925990
  Cl     4.745030    6.153320   -2.864750
  Cl     5.438900    2.741890    1.230850
  H     -1.286770    2.204470    0.098980
  H      1.062640    2.922230    0.193350
  H     -0.040810   -1.921090    0.052350
  H      3.329410   -0.977310    0.373690
  H      5.776510    4.951890   -0.496780
  H      2.786880    4.180330   -3.495300
  H      2.168020    2.086870   -2.360910

----------------------------
CARTESIAN COORDINATES (A.U.)
----------------------------
  NO LB      ZA    FRAG     MASS         X           Y           Z
   0 C     6.0000    0    12.011   -0.941802    2.752802    0.187007
   1 C     6.0000    0    12.011    1.580491    3.518424    0.264316
   2 C     6.0000    0    12.011    3.512056    1.718970    0.145358
   3 C     6.0000    0    12.011    2.885706   -0.841930    0.195152
   4 C     6.0000    0    12.011    0.366588   -1.623483    0.124495
   5 C     6.0000    0    12.011   -1.536555    0.186044    0.081787
   6 Cl   17.0000    0    35.453   -4.645022   -0.736899   -0.083715
   7 O     8.0000    0    15.999    4.698294   -2.679707    0.300920
   8 O     8.0000    0    15.999    6.038431    2.341654    0.007710
   9 C     6.0000    0    12.011    6.724401    4.470242   -1.348168
  10 C     6.0000    0    12.011    8.691304    5.975106   -0.412716
  11 C     6.0000    0    12.011    9.402238    8.183591   -1.681781
  12 C     6.0000    0    12.011    8.148915    8.877537   -3.885579
  13 C     6.0000    0    12.011    6.240121    7.358499   -4.876589
  14 C     6.0000    0    12.011    5.563713    5.127526   -3.639594
  15 Cl   17.0000    0    35.453    8.966807   11.628090   -5.413593
  16 Cl   17.0000    0    35.453   10.278031    5.181421    2.325969
  17 H     1.0000    0     1.008   -2.431643    4.165845    0.187045
  18 H     1.0000    0     1.008    2.008099    5.522214    0.365379
  19 H     1.0000    0     1.008   -0.077120   -3.630334    0.098927
  20 H     1.0000    0     1.008    6.291673   -1.846848    0.706172
  21 H     1.0000    0     1.008   10.916022    9.357716   -0.938778
  22 H     1.0000    0     1.008    5.266440    7.899679   -6.605160
  23 H     1.0000    0     1.008    4.096964    3.943613   -4.461473

--------------------------------
INTERNAL COORDINATES (ANGSTROEM)
--------------------------------
 C      0   0   0     0.000000000000     0.00000000     0.00000000
 C      1   0   0     1.395475194405     0.00000000     0.00000000
 C      2   1   0     1.398382942902   120.00730714     0.00000000
 C      3   2   1     1.395363448676   119.13439743   353.88521152
 C      4   3   2     1.396243314075   120.92787852     5.99690044
 C      5   4   3     1.389849748570   119.22087215   358.02744876
 Cl     6   5   4     1.718138388285   119.91522697   178.40217544
 O      4   3   2     1.367089833698   121.66780929   185.64837581
 O      3   2   1     1.378834332217   123.25460873   174.63471367
 C      9   3   2     1.383962503105   118.43773013   324.72150892
 C     10   9   3     1.400910454526   118.31610011   142.20041341
 C     11  10   9     1.399406924415   120.32394736   181.80216421
 C     12  11  10     1.390951832847   119.64607025   359.83916149
 C     13  12  11     1.393361722633   120.59113197   358.24719922
 C     14  13  12     1.396559432355   119.80682487     0.45907096
 Cl    13  12  11     1.720380732600   119.83263710   178.51818599
 Cl    11  10   9     1.726775746326   121.30414926     1.29488420
 H      1   2   3     1.086595074073   119.61615663   182.99686979
 H      2   1   3     1.085553351245   118.97395465   178.34468767
 H      5   4   3     1.087711184690   119.71147944   177.87310101
 H      8   4   3     0.975286751576   107.10469875    12.39482959
 H     12  11  10     1.087348232352   120.11423103   179.32864385
 H     14  13  12     1.088213556844   120.51644043   180.25560822
 H     15  14  13     1.088162453543   118.82789416   181.29536685

---------------------------
INTERNAL COORDINATES (A.U.)
---------------------------
 C      0   0   0     0.000000000000     0.00000000     0.00000000
 C      1   0   0     2.637065944106     0.00000000     0.00000000
 C      2   1   0     2.642560792432   120.00730714     0.00000000
 C      3   2   1     2.636854775281   119.13439743   353.88521152
 C      4   3   2     2.638517479921   120.92787852     5.99690044
 C      5   4   3     2.626435392097   119.22087215   358.02744876
 Cl     6   5   4     3.246811014036   119.91522697   178.40217544
 O      4   3   2     2.583425386157   121.66780929   185.64837581
 O      3   2   1     2.605619271938   123.25460873   174.63471367
 C      9   3   2     2.615310110484   118.43773013   324.72150892
 C     10   9   3     2.647337097201   118.31610011   142.20041341
 C     11  10   9     2.644495837057   120.32394736   181.80216421
 C     12  11  10     2.628518029556   119.64607025   359.83916149
 C     13  12  11     2.633072061266   120.59113197   358.24719922
 C     14  13  12     2.639114856896   119.80682487     0.45907096
 Cl    13  12  11     3.251048430688   119.83263710   178.51818599
 Cl    11  10   9     3.263133255254   121.30414926     1.29488420
 H      1   2   3     2.053367108466   119.61615663   182.99686979
 H      2   1   3     2.051398537614   118.97395465   178.34468767
 H      5   4   3     2.055476251867   119.71147944   177.87310101
 H      8   4   3     1.843024862521   107.10469875    12.39482959
 H     12  11  10     2.054790371350   120.11423103   179.32864385
 H     14  13  12     2.056425597656   120.51644043   180.25560822
 H     15  14  13     2.056329026411   118.82789416   181.29536685

---------------------
BASIS SET INFORMATION
---------------------
There are 4 groups of distinct atoms

 Group   1 Type C   : 11s6p2d1f contracted to 5s3p2d1f pattern {62111/411/11/1}
 Group   2 Type Cl  : 14s9p3d1f contracted to 5s5p2d1f pattern {73211/51111/21/1}
 Group   3 Type O   : 11s6p2d1f contracted to 5s3p2d1f pattern {62111/411/11/1}
 Group   4 Type H   : 5s1p contracted to 3s1p pattern {311/1}

Atom   0C    basis set group =>   1
Atom   1C    basis set group =>   1
Atom   2C    basis set group =>   1
Atom   3C    basis set group =>   1
Atom   4C    basis set group =>   1
Atom   5C    basis set group =>   1
Atom   6Cl   basis set group =>   2
Atom   7O    basis set group =>   3
Atom   8O    basis set group =>   3
Atom   9C    basis set group =>   1
Atom  10C    basis set group =>   1
Atom  11C    basis set group =>   1
Atom  12C    basis set group =>   1
Atom  13C    basis set group =>   1
Atom  14C    basis set group =>   1
Atom  15Cl   basis set group =>   2
Atom  16Cl   basis set group =>   2
Atom  17H    basis set group =>   4
Atom  18H    basis set group =>   4
Atom  19H    basis set group =>   4
Atom  20H    basis set group =>   4
Atom  21H    basis set group =>   4
Atom  22H    basis set group =>   4
Atom  23H    basis set group =>   4
---------------------------------
AUXILIARY/J BASIS SET INFORMATION
---------------------------------
There are 4 groups of distinct atoms

 Group   1 Type C   : 12s5p4d2f1g contracted to 6s4p3d1f1g pattern {711111/2111/211/2/1}
 Group   2 Type Cl  : 14s5p5d2f1g contracted to 8s4p3d1f1g pattern {71111111/2111/311/2/1}
 Group   3 Type O   : 12s5p4d2f1g contracted to 6s4p3d1f1g pattern {711111/2111/211/2/1}
 Group   4 Type H   : 5s2p1d contracted to 3s1p1d pattern {311/2/1}

Atom   0C    basis set group =>   1
Atom   1C    basis set group =>   1
Atom   2C    basis set group =>   1
Atom   3C    basis set group =>   1
Atom   4C    basis set group =>   1
Atom   5C    basis set group =>   1
Atom   6Cl   basis set group =>   2
Atom   7O    basis set group =>   3
Atom   8O    basis set group =>   3
Atom   9C    basis set group =>   1
Atom  10C    basis set group =>   1
Atom  11C    basis set group =>   1
Atom  12C    basis set group =>   1
Atom  13C    basis set group =>   1
Atom  14C    basis set group =>   1
Atom  15Cl   basis set group =>   2
Atom  16Cl   basis set group =>   2
Atom  17H    basis set group =>   4
Atom  18H    basis set group =>   4
Atom  19H    basis set group =>   4
Atom  20H    basis set group =>   4
Atom  21H    basis set group =>   4
Atom  22H    basis set group =>   4
Atom  23H    basis set group =>   4
------------------------------------------------------------------------------
                             ORCA STARTUP CALCULATIONS
                           -- RI-GTO INTEGRALS CHOSEN --
------------------------------------------------------------------------------
------------------------------------------------------------------------------
                   ___                                                        
                  /   \      - P O W E R E D   B Y -                         
                 /     \                                                     
                 |  |  |   _    _      __       _____    __    __             
                 |  |  |  | |  | |    /  \     |  _  \  |  |  /  |          
                  \  \/   | |  | |   /    \    | | | |  |  | /  /          
                 / \  \   | |__| |  /  /\  \   | |_| |  |  |/  /          
                |  |  |   |  __  | /  /__\  \  |    /   |      \           
                |  |  |   | |  | | |   __   |  |    \   |  |\   \          
                \     /   | |  | | |  |  |  |  | |\  \  |  | \   \       
                 \___/    |_|  |_| |__|  |__|  |_| \__\ |__|  \__/        
                                                                              
                      - O R C A' S   B I G   F R I E N D -                    
                                      &                                       
                       - I N T E G R A L  F E E D E R -                       
                                                                              
 v1 FN, 2020, v2 2021, v3 2022-2024                                           
------------------------------------------------------------------------------


----------------------
SHARK INTEGRAL PACKAGE
----------------------

Number of atoms                             ...     24
Number of basis functions                   ...    587
Number of shells                            ...    221
Maximum angular momentum                    ...      3
Integral batch strategy                     ... SHARK/LIBINT Hybrid
RI-J (if used) integral strategy            ... SPLIT-RIJ (Revised 2003 algorithm where possible)
Printlevel                                  ...      1
Contraction scheme used                     ... SEGMENTED contraction
Prescreening option                         ... SCHWARTZ
   Thresh                                   ... 2.500e-11
   Tcut                                     ... 2.500e-12
   Tpresel                                  ... 2.500e-12 
Coulomb Range Separation                    ... NOT USED
Exchange Range Separation                   ... NOT USED
Multipole approximations                    ... NOT USED
Finite Nucleus Model                        ... NOT USED
CABS basis                                  ... NOT available
Auxiliary Coulomb fitting basis             ... AVAILABLE
   # of basis functions in Aux-J            ...    916
   # of shells in Aux-J                     ...    296
   Maximum angular momentum in Aux-J        ...      4
Auxiliary J/K fitting basis                 ... NOT available
Auxiliary Correlation fitting basis         ... NOT available
Auxiliary 'external' fitting basis          ... NOT available

Checking pre-screening integrals            ... done (  0.0 sec) Dimension = 221
Check shell pair data                       ... done (  0.0 sec)
Shell pair information
Shell pair cut-off parameter TPreSel        ...   2.5e-12
Total number of shell pairs                 ...     24531
Shell pairs after pre-screening             ...     18134
Total number of primitive shell pairs       ...     81843
Primitive shell pairs kept                  ...     39993
          la=0 lb=0:   4014 shell pairs
          la=1 lb=0:   5130 shell pairs
          la=1 lb=1:   1655 shell pairs
          la=2 lb=0:   2641 shell pairs
          la=2 lb=1:   1675 shell pairs
          la=2 lb=2:    443 shell pairs
          la=3 lb=0:   1242 shell pairs
          la=3 lb=1:    810 shell pairs
          la=3 lb=2:    414 shell pairs
          la=3 lb=3:    110 shell pairs

Calculating one electron integrals          ... done (  0.1 sec)
Calculating RI/J V-Matrix + Cholesky decomp.... done (  0.0 sec)
Calculating Nuclear repulsion               ... done (  0.0 sec) ENN=   1433.084984797995 Eh

Diagonalization of the overlap matrix:
Smallest eigenvalue                        ... 9.488e-06
Time for diagonalization                   ...    0.022 sec
Threshold for overlap eigenvalues          ... 1.000e-07
Number of eigenvalues below threshold      ... 0
Time for construction of square roots      ...    0.017 sec
Total time needed                          ...    0.040 sec

-------------------
DFT GRID GENERATION
-------------------

General Integration Accuracy     IntAcc      ... 4.388
Radial Grid Type                 RadialGrid  ... OptM3 with GC (2021)
Angular Grid (max. ang.)         AngularGrid ... 4 (Lebedev-302)
Angular grid pruning method      GridPruning ... 4 (adaptive)
Weight generation scheme         WeightScheme... mBecke (2022)
Basis function cutoff            BFCut       ... 1.0000e-11
Integration weight cutoff        WCut        ... 1.0000e-14
Partially contracted basis set               ... off
Rotationally invariant grid construction     ... off
Angular grids for H and He will be reduced by one unit

Total number of grid points                  ...   128284
Total number of batches                      ...     2017
Average number of points per batch           ...       63
Average number of grid points per atom       ...     5345
Initializing property integral containers    ... done (  0.0 sec)

SHARK setup successfully completed in   1.2 seconds

Maximum memory used throughout the entire STARTUP-calculation: 93.1 MB
-------------------------------------------------------------------------------
                                 ORCA GUESS
                   Start orbitals & Density for SCF / CASSCF
-------------------------------------------------------------------------------

------------
SCF SETTINGS
------------
Hamiltonian:
 Density Functional     Method          .... DFT(GTOs)
 Exchange Functional    Exchange        .... PBE
   PBE kappa parameter   XKappa         ....  0.804000
   PBE mue parameter    XMuePBE         ....  0.219520
 Correlation Functional Correlation     .... PBE
   PBE beta parameter  CBetaPBE         ....  0.066725
 LDA part of GGA corr.  LDAOpt          .... PW91-LDA
 Gradients option       PostSCFGGA      .... off
   NL short-range parameter             ....  6.400000
 RI-approximation to the Coulomb term is turned on
   Number of AuxJ basis functions       .... 916


General Settings:
 Integral files         IntName         .... Triclosan\Triclosan_PBE_def2-TZVP\Triclosan_PBE_def2-TZVP.orcainp
 Hartree-Fock type      HFTyp           .... RHF
 Total Charge           Charge          ....    0
 Multiplicity           Mult            ....    1
 Number of Electrons    NEL             ....  146
 Basis Dimension        Dim             ....  587
 Nuclear Repulsion      ENuc            ....   1433.0849847980 Eh

Convergence Acceleration:
 AO-DIIS                CNVDIIS         .... on
   Start iteration      DIISMaxIt       ....    12
   Startup error        DIISStart       ....  0.200000
   # of expansion vecs  DIISMaxEq       ....     5
   Bias factor          DIISBfac        ....   1.050
   Max. coefficient     DIISMaxC        ....  10.000
 MO-DIIS                CNVKDIIS        .... off
 Trust-Rad. Augm. Hess. CNVTRAH         .... auto
   Auto Start mean grad. ratio tolernc. ....  1.125000
   Auto Start start iteration           ....    50
   Auto Start num. interpolation iter.  ....    10
   Max. Number of Micro iterations      ....    24
   Max. Number of Macro iterations      .... Maxiter - #DIIS iter
   Number of Davidson start vectors     ....     2
   Converg. threshold    (grad. norm)   ....   1.000e-05
   Grad. Scal. Fac. for Micro threshold ....   0.100
   Minimum threshold for Micro iter.    ....   1.000e-02
   NR start threshold (gradient norm)   ....   1.000e-04
   Initial trust radius                 ....   0.400
   Minimum AH scaling param. (alpha)    ....   1.000
   Maximum AH scaling param. (alpha)    .... 1000.000
   Quad. conv. algorithm                .... NR
   White noise on init. David. guess    .... on
   Maximum white noise                  ....   0.010
   Pseudo random numbers                .... off
   Inactive MOs                         .... canonical
   Orbital update algorithm             .... Taylor
   Preconditioner                       .... Diag
   Full preconditioner red. dimension   ....   250
 SOSCF                  CNVSOSCF        .... on
   Start iteration      SOSCFMaxIt      ....   150
   Startup grad/error   SOSCFStart      ....  0.003300
   Hessian update       SOSCFHessUp     .... L-BFGS
 Level Shifting         CNVShift        .... on
   Level shift para.    LevelShift      ....    0.2500
   Turn off err/grad.   ShiftErr        ....    0.0010
 Zerner damping         CNVZerner       .... off
 Static damping         CNVDamp         .... on
   Fraction old density DampFac         ....    0.7000
   Max. Damping (<1)    DampMax         ....    0.9800
   Min. Damping (>=0)   DampMin         ....    0.0000
   Turn off err/grad.   DampErr         ....    0.1000

SCF Procedure:
 Maximum # iterations   MaxIter         ....   125
 SCF integral mode      SCFMode         .... Direct
   Integral package                     .... SHARK and LIBINT hybrid scheme
 Reset frequency        DirectResetFreq ....    20
 Integral Threshold     Thresh          ....  2.500e-11 Eh
 Primitive CutOff       TCut            ....  2.500e-12 Eh

Convergence Tolerance:
 Convergence Check Mode ConvCheckMode   .... Total+1el-Energy
 Convergence forced     ConvForced      .... 0
 Energy Change          TolE            ....  1.000e-08 Eh
 1-El. energy change                    ....  1.000e-05 Eh
 Orbital Gradient       TolG            ....  1.000e-05
 Orbital Rotation angle TolX            ....  1.000e-05
 DIIS Error             TolErr          ....  5.000e-07

------------------------------
INITIAL GUESS: MODEL POTENTIAL
------------------------------
Loading Hartree-Fock densities                     ... done
Calculating cut-offs                               ... done
Initializing the effective Hamiltonian             ... done
Setting up the integral package (SHARK)            ... done
Starting the Coulomb interaction                   ... done (   0.6 sec)
Making the grid                                    ... done (   0.2 sec)
Mapping shells                                     ... done
Starting the XC term evaluation                    ... done (   0.8 sec)
  promolecular density results
     # of electrons  =    145.990678339
     EX              =   -161.966495037
     EC              =     -5.226448839
     EX+EC           =   -167.192943876
Transforming the Hamiltonian                       ... done (   0.0 sec)
Diagonalizing the Hamiltonian                      ... done (   0.0 sec)
Back transforming the eigenvectors                 ... done (   0.0 sec)
Now organizing SCF variables                       ... done
                      ------------------
                      INITIAL GUESS DONE (   1.6 sec)
                      ------------------
             **** ENERGY FILE WAS UPDATED (Triclosan\Triclosan_PBE_def2-TZVP\Triclosan_PBE_def2-TZVP.orcainp.en.tmp) ****
Finished Guess after   1.7 sec
Maximum memory used throughout the entire GUESS-calculation: 68.6 MB

-------------------------------------------------------------------------------------------
                                      ORCA LEAN-SCF
                              memory conserving SCF solver
-------------------------------------------------------------------------------------------

--------------------
CPCM SOLVATION MODEL
--------------------
CPCM parameters:
  Epsilon                                         ...      80.1510
  Refrac                                          ...       1.3328
  Rsolv                                           ...       1.3000
  Surface type                                    ... GAUSSIAN VDW
  Discretization scheme                           ... Constant charge density
    Threshold for H atoms                         ...       5.0000 (charges/Ang^2)
    Threshold for non-H atoms                     ...       5.0000 (charges/Ang^2)
  Epsilon function type                           ...         CPCM
Solvent:                                          ... WATER
Radii:
  Scheme                                          ... Element-dependent radii
  Radius for C  used is    3.8550 Bohr (=   2.0400 Ang.)
  Radius for Cl used is    3.9684 Bohr (=   2.1000 Ang.)
  Radius for O  used is    3.4469 Bohr (=   1.8240 Ang.)
  Radius for H  used is    2.4944 Bohr (=   1.3200 Ang.)
Calculating surface                               ...        done! (  0.0s)
Cavity surface points                             ...         2518
Cavity Volume                                     ...    1981.6541
Cavity Surface-area                               ...    1034.6095
Calculating surface distance matrix               ...        done! (  0.0s)
Performing Cholesky decomposition & store         ...        done! (  0.1s)
Overall time for CPCM initialization              ...                 0.1s

----------------------------------------D-I-I-S--------------------------------------------
Iteration    Energy (Eh)           Delta-E    RMSDP     MaxDP     DIISErr   Damp  Time(sec)
-------------------------------------------------------------------------------------------
               ***  Starting incremental Fock matrix formation  ***
    1    -1991.2675920504109399     0.00e+00  1.83e-03  1.95e-01  2.07e-01  0.700   5.5
    2    -1991.3923207734726475    -1.25e-01  1.79e-03  2.02e-01  7.70e-02  0.700   5.0
                               ***Turning on AO-DIIS***
    3    -1991.4357437676151221    -4.34e-02  8.19e-04  5.97e-02  2.03e-02  0.700   4.9
    4    -1991.4617570137045277    -2.60e-02  1.37e-03  8.65e-02  1.05e-02  0.000   4.7
    5    -1991.5206134811112406    -5.89e-02  5.24e-04  6.54e-02  1.15e-02  0.000   4.8
    6    -1991.5211987710870289    -5.85e-04  1.51e-04  1.30e-02  4.34e-03  0.000   4.6
                              *** Initializing SOSCF ***
---------------------------------------S-O-S-C-F--------------------------------------
Iteration    Energy (Eh)           Delta-E    RMSDP     MaxDP     MaxGrad    Time(sec)
--------------------------------------------------------------------------------------
    7    -1991.5212734638937491    -7.47e-05  5.66e-05  4.93e-03  5.73e-04     4.4
               *** Restarting incremental Fock matrix formation ***
    8    -1991.5212776525365825    -4.19e-06  3.93e-05  3.21e-03  8.55e-05     5.5
    9    -1991.5212777385434038    -8.60e-08  1.12e-05  1.08e-03  1.40e-04     4.0
   10    -1991.5212786033296197    -8.65e-07  1.14e-05  1.06e-03  7.90e-05     3.9
   11    -1991.5212786190979841    -1.58e-08  2.23e-06  1.13e-04  4.28e-05     3.9
   12    -1991.5212787434086295    -1.24e-07  5.03e-06  4.30e-04  2.13e-05     3.7
   13    -1991.5212787581060638    -1.47e-08  1.87e-06  2.15e-04  2.03e-05     3.8
   14    -1991.5212787907555594    -3.26e-08  2.36e-06  2.48e-04  9.20e-06     3.6
   15    -1991.5212787797502187     1.10e-08  1.44e-06  1.15e-04  6.95e-06     3.6
   16    -1991.5212787867692441    -7.02e-09  3.03e-06  2.80e-04  1.59e-06     3.6
                 **** Energy Check signals convergence ****

               *****************************************************
               *                     SUCCESS                       *
               *           SCF CONVERGED AFTER  16 CYCLES          *
               *****************************************************

             **** ENERGY FILE WAS UPDATED (Triclosan\Triclosan_PBE_def2-TZVP\Triclosan_PBE_def2-TZVP.orcainp.en.tmp) ****

----------------
TOTAL SCF ENERGY
----------------

Total Energy       :      -1991.52127878676924 Eh          -54192.04907 eV

Components:
Nuclear Repulsion  :       1433.08498479799505 Eh           38996.22497 eV
Electronic Energy  :      -3424.59461845324222 Eh          -93187.95715 eV
One Electron Energy:      -5587.26904499645480 Eh         -152037.32014 eV
Two Electron Energy:       2162.67442654321258 Eh           58849.36299 eV
CPCM Dielectric    :         -0.01164513152203 Eh              -0.31688 eV

Virial components:
Potential Energy   :      -3978.67408844000965 Eh         -108265.22604 eV
Kinetic Energy     :       1987.15280965324064 Eh           54073.17698 eV
Virial Ratio       :          2.00219835591521

DFT components:
N(Alpha)           :       73.000039270411 electrons
N(Beta)            :       73.000039270411 electrons
N(Total)           :      146.000078540823 electrons
E(X)               :     -163.244048181229 Eh       
E(C)               :       -5.221945818443 Eh       
E(XC)              :     -168.465993999672 Eh       

CPCM Solvation Model Properties:
Surface-charge          :         -0.02759165742557
Corrected charge        :         -0.00000000000000
Outlying charge corr.   :          0.00004255773284 Eh               0.00116 eV
Free-energy (cav+disp)  :  This term is not implemented in the current solvation scheme

---------------
SCF CONVERGENCE
---------------

  Last Energy change         ...    7.0190e-09  Tolerance :   1.0000e-08
  Last MAX-Density change    ...    2.7965e-04  Tolerance :   1.0000e-07
  Last RMS-Density change    ...    3.0311e-06  Tolerance :   5.0000e-09
  Last DIIS Error            ...    5.7342e-04  Tolerance :   5.0000e-07
  Last Orbital Gradient      ...    1.5897e-06  Tolerance :   1.0000e-05
  Last Orbital Rotation      ...    1.0057e-05  Tolerance :   1.0000e-05


----------------
ORBITAL ENERGIES
----------------

  NO   OCC          E(Eh)            E(eV) 
   0   2.0000    -100.677349     -2739.5699 
   1   2.0000    -100.672813     -2739.4465 
   2   2.0000    -100.669142     -2739.3466 
   3   2.0000     -18.818837      -512.0866 
   4   2.0000     -18.790936      -511.3274 
   5   2.0000      -9.972443      -271.3640 
   6   2.0000      -9.962624      -271.0968 
   7   2.0000      -9.959335      -271.0073 
   8   2.0000      -9.957925      -270.9689 
   9   2.0000      -9.955782      -270.9106 
  10   2.0000      -9.948838      -270.7216 
  11   2.0000      -9.912390      -269.7298 
  12   2.0000      -9.910075      -269.6669 
  13   2.0000      -9.907346      -269.5926 
  14   2.0000      -9.902000      -269.4471 
  15   2.0000      -9.898547      -269.3532 
  16   2.0000      -9.896134      -269.2875 
  17   2.0000      -9.190952      -250.0985 
  18   2.0000      -9.186811      -249.9858 
  19   2.0000      -9.183234      -249.8885 
  20   2.0000      -7.014472      -190.8735 
  21   2.0000      -7.010063      -190.7535 
  22   2.0000      -7.006383      -190.6534 
  23   2.0000      -7.004365      -190.5985 
  24   2.0000      -7.003615      -190.5780 
  25   2.0000      -7.000218      -190.4856 
  26   2.0000      -6.999641      -190.4699 
  27   2.0000      -6.996661      -190.3888 
  28   2.0000      -6.996120      -190.3741 
  29   2.0000      -1.019237       -27.7348 
  30   2.0000      -0.980870       -26.6908 
  31   2.0000      -0.839172       -22.8350 
  32   2.0000      -0.823622       -22.4119 
  33   2.0000      -0.812219       -22.1016 
  34   2.0000      -0.772051       -21.0086 
  35   2.0000      -0.762078       -20.7372 
  36   2.0000      -0.697096       -18.9690 
  37   2.0000      -0.691254       -18.8100 
  38   2.0000      -0.686489       -18.6803 
  39   2.0000      -0.653106       -17.7719 
  40   2.0000      -0.592393       -16.1198 
  41   2.0000      -0.577125       -15.7044 
  42   2.0000      -0.565378       -15.3847 
  43   2.0000      -0.546517       -14.8715 
  44   2.0000      -0.519146       -14.1267 
  45   2.0000      -0.490573       -13.3492 
  46   2.0000      -0.464674       -12.6444 
  47   2.0000      -0.461102       -12.5472 
  48   2.0000      -0.451486       -12.2855 
  49   2.0000      -0.430810       -11.7229 
  50   2.0000      -0.417971       -11.3736 
  51   2.0000      -0.406251       -11.0547 
  52   2.0000      -0.401153       -10.9159 
  53   2.0000      -0.398573       -10.8457 
  54   2.0000      -0.392236       -10.6733 
  55   2.0000      -0.377799       -10.2804 
  56   2.0000      -0.365537        -9.9468 
  57   2.0000      -0.361886        -9.8474 
  58   2.0000      -0.357063        -9.7162 
  59   2.0000      -0.348612        -9.4862 
  60   2.0000      -0.340712        -9.2712 
  61   2.0000      -0.330748        -9.0001 
  62   2.0000      -0.325498        -8.8573 
  63   2.0000      -0.318306        -8.6616 
  64   2.0000      -0.295797        -8.0490 
  65   2.0000      -0.289053        -7.8655 
  66   2.0000      -0.281556        -7.6615 
  67   2.0000      -0.280556        -7.6343 
  68   2.0000      -0.278266        -7.5720 
  69   2.0000      -0.241845        -6.5809 
  70   2.0000      -0.231046        -6.2871 
  71   2.0000      -0.220044        -5.9877 
  72   2.0000      -0.198247        -5.3946 
  73   0.0000      -0.070558        -1.9200 
  74   0.0000      -0.062354        -1.6967 
  75   0.0000      -0.047966        -1.3052 
  76   0.0000      -0.038261        -1.0411 
  77   0.0000      -0.028343        -0.7712 
  78   0.0000      -0.007721        -0.2101 
  79   0.0000       0.007230         0.1967 
  80   0.0000       0.022298         0.6068 
  81   0.0000       0.044842         1.2202 
  82   0.0000       0.052273         1.4224 
  83   0.0000       0.063752         1.7348 
*Only the first 10 virtual orbitals were printed.

                    ********************************
                    * MULLIKEN POPULATION ANALYSIS *
                    ********************************

-----------------------
MULLIKEN ATOMIC CHARGES
-----------------------
   0 C :   -0.211728
   1 C :   -0.213499
   2 C :    0.244336
   3 C :    0.101024
   4 C :   -0.274449
   5 C :    0.191816
   6 Cl:   -0.122248
   7 O :   -0.375131
   8 O :   -0.254774
   9 C :    0.258934
  10 C :    0.041796
  11 C :   -0.230618
  12 C :    0.179253
  13 C :   -0.182287
  14 C :   -0.213833
  15 Cl:   -0.110681
  16 Cl:   -0.091998
  17 H :    0.142995
  18 H :    0.163868
  19 H :    0.137855
  20 H :    0.353414
  21 H :    0.149200
  22 H :    0.150061
  23 H :    0.166694
Sum of atomic charges:    0.0000000

--------------------------------
MULLIKEN REDUCED ORBITAL CHARGES
--------------------------------
  0 C s       :     3.240576  s :     3.240576
      pz      :     1.010796  p :     2.875320
      px      :     0.949162
      py      :     0.915361
      dz2     :     0.005247  d :     0.088758
      dxz     :     0.014270
      dyz     :     0.015084
      dx2y2   :     0.018775
      dxy     :     0.035382
      f0      :     0.001506  f :     0.007075
      f+1     :     0.000588
      f-1     :     0.000595
      f+2     :     0.001194
      f-2     :     0.000191
      f+3     :     0.001595
      f-3     :     0.001406

  1 C s       :     3.267364  s :     3.267364
      pz      :     0.984818  p :     2.854851
      px      :     0.903545
      py      :     0.966488
      dz2     :     0.006149  d :     0.084238
      dxz     :     0.024679
      dyz     :     0.006796
      dx2y2   :     0.022922
      dxy     :     0.023693
      f0      :     0.001505  f :     0.007045
      f+1     :     0.000524
      f-1     :     0.000664
      f+2     :     0.000429
      f-2     :     0.001054
      f+3     :     0.001593
      f-3     :     0.001275

  2 C s       :     3.065865  s :     3.065865
      pz      :     1.042428  p :     2.516538
      px      :     0.646568
      py      :     0.827542
      dz2     :     0.010407  d :     0.158811
      dxz     :     0.040851
      dyz     :     0.022721
      dx2y2   :     0.037006
      dxy     :     0.047826
      f0      :     0.002223  f :     0.014450
      f+1     :     0.001219
      f-1     :     0.000668
      f+2     :     0.001976
      f-2     :     0.001261
      f+3     :     0.003817
      f-3     :     0.003285

  3 C s       :     3.096048  s :     3.096048
      pz      :     0.956879  p :     2.618434
      px      :     0.811184
      py      :     0.850372
      dz2     :     0.006961  d :     0.169433
      dxz     :     0.038990
      dyz     :     0.031915
      dx2y2   :     0.057351
      dxy     :     0.034217
      f0      :     0.002381  f :     0.015060
      f+1     :     0.000950
      f-1     :     0.000933
      f+2     :     0.001146
      f-2     :     0.002465
      f+3     :     0.004151
      f-3     :     0.003034

  4 C s       :     3.321697  s :     3.321697
      pz      :     1.030058  p :     2.867765
      px      :     0.943990
      py      :     0.893717
      dz2     :     0.005124  d :     0.077745
      dxz     :     0.023060
      dyz     :     0.006569
      dx2y2   :     0.024551
      dxy     :     0.018440
      f0      :     0.001562  f :     0.007242
      f+1     :     0.000600
      f-1     :     0.000669
      f+2     :     0.000419
      f-2     :     0.001036
      f+3     :     0.001556
      f-3     :     0.001401

  5 C s       :     3.091260  s :     3.091260
      pz      :     1.009975  p :     2.544669
      px      :     0.749544
      py      :     0.785150
      dz2     :     0.007452  d :     0.161924
      dxz     :     0.029230
      dyz     :     0.028005
      dx2y2   :     0.051235
      dxy     :     0.046001
      f0      :     0.001891  f :     0.010332
      f+1     :     0.000899
      f-1     :     0.000548
      f+2     :     0.001003
      f-2     :     0.001120
      f+3     :     0.002652
      f-3     :     0.002220

  6 Cls       :     5.884226  s :     5.884226
      pz      :     3.908468  p :    11.163020
      px      :     3.334229
      py      :     3.920324
      dz2     :     0.007945  d :     0.069050
      dxz     :     0.022024
      dyz     :     0.002509
      dx2y2   :     0.020284
      dxy     :     0.016288
      f0      :     0.000634  f :     0.005952
      f+1     :     0.001023
      f-1     :     0.000169
      f+2     :     0.000682
      f-2     :     0.000314
      f+3     :     0.001506
      f-3     :     0.001625

  7 O s       :     3.756130  s :     3.756130
      pz      :     1.776983  p :     4.586153
      px      :     1.275045
      py      :     1.534124
      dz2     :     0.003886  d :     0.031255
      dxz     :     0.003202
      dyz     :     0.005118
      dx2y2   :     0.006653
      dxy     :     0.012395
      f0      :     0.000281  f :     0.001593
      f+1     :     0.000315
      f-1     :     0.000188
      f+2     :     0.000050
      f-2     :     0.000198
      f+3     :     0.000141
      f-3     :     0.000420

  8 O s       :     3.758919  s :     3.758919
      pz      :     1.626699  p :     4.451532
      px      :     1.337900
      py      :     1.486933
      dz2     :     0.005811  d :     0.042200
      dxz     :     0.008110
      dyz     :     0.006794
      dx2y2   :     0.013059
      dxy     :     0.008427
      f0      :     0.000282  f :     0.002123
      f+1     :     0.000205
      f-1     :     0.000285
      f+2     :     0.000346
      f-2     :     0.000270
      f+3     :     0.000352
      f-3     :     0.000383

  9 C s       :     3.054586  s :     3.054586
      pz      :     0.844344  p :     2.497751
      px      :     0.946825
      py      :     0.706583
      dz2     :     0.043707  d :     0.173996
      dxz     :     0.029675
      dyz     :     0.036004
      dx2y2   :     0.036807
      dxy     :     0.027803
      f0      :     0.001590  f :     0.014733
      f+1     :     0.001473
      f-1     :     0.003385
      f+2     :     0.002424
      f-2     :     0.002233
      f+3     :     0.001979
      f-3     :     0.001648

 10 C s       :     3.200214  s :     3.200214
      pz      :     0.822244  p :     2.593297
      px      :     0.897585
      py      :     0.873469
      dz2     :     0.036255  d :     0.154381
      dxz     :     0.027587
      dyz     :     0.032368
      dx2y2   :     0.030950
      dxy     :     0.027220
      f0      :     0.001123  f :     0.010312
      f+1     :     0.001526
      f-1     :     0.001907
      f+2     :     0.001364
      f-2     :     0.001752
      f+3     :     0.001477
      f-3     :     0.001163

 11 C s       :     3.284951  s :     3.284951
      pz      :     0.956445  p :     2.848846
      px      :     0.942302
      py      :     0.950099
      dz2     :     0.021753  d :     0.089570
      dxz     :     0.015019
      dyz     :     0.022199
      dx2y2   :     0.012669
      dxy     :     0.017930
      f0      :     0.001183  f :     0.007251
      f+1     :     0.000519
      f-1     :     0.001429
      f+2     :     0.001105
      f-2     :     0.001419
      f+3     :     0.000573
      f-3     :     0.001022

 12 C s       :     3.098453  s :     3.098453
      pz      :     0.845503  p :     2.550743
      px      :     0.885598
      py      :     0.819642
      dz2     :     0.033886  d :     0.161237
      dxz     :     0.029117
      dyz     :     0.035014
      dx2y2   :     0.035523
      dxy     :     0.027696
      f0      :     0.001346  f :     0.010315
      f+1     :     0.001075
      f-1     :     0.001775
      f+2     :     0.001744
      f-2     :     0.001686
      f+3     :     0.001559
      f-3     :     0.001130

 13 C s       :     3.244579  s :     3.244579
      pz      :     0.941096  p :     2.842263
      px      :     0.943534
      py      :     0.957633
      dz2     :     0.017674  d :     0.088370
      dxz     :     0.012178
      dyz     :     0.016527
      dx2y2   :     0.020637
      dxy     :     0.021353
      f0      :     0.000282  f :     0.007076
      f+1     :     0.000999
      f-1     :     0.001403
      f+2     :     0.000833
      f-2     :     0.001254
      f+3     :     0.001307
      f-3     :     0.000998

 14 C s       :     3.281424  s :     3.281424
      pz      :     0.907440  p :     2.842277
      px      :     0.965919
      py      :     0.968918
      dz2     :     0.021571  d :     0.083165
      dxz     :     0.015515
      dyz     :     0.017211
      dx2y2   :     0.010206
      dxy     :     0.018663
      f0      :     0.001147  f :     0.006967
      f+1     :     0.000596
      f-1     :     0.001362
      f+2     :     0.000958
      f-2     :     0.001358
      f+3     :     0.000612
      f-3     :     0.000934

 15 Cls       :     5.886440  s :     5.886440
      pz      :     3.796951  p :    11.150058
      px      :     3.899524
      py      :     3.453583
      dz2     :     0.009879  d :     0.068247
      dxz     :     0.006889
      dyz     :     0.019131
      dx2y2   :     0.018276
      dxy     :     0.014072
      f0      :     0.000629  f :     0.005936
      f+1     :     0.000109
      f-1     :     0.001041
      f+2     :     0.001269
      f-2     :     0.000984
      f+3     :     0.000914
      f-3     :     0.000990

 16 Cls       :     5.891279  s :     5.891279
      pz      :     3.452181  p :    11.127057
      px      :     3.762798
      py      :     3.912079
      dz2     :     0.023829  d :     0.067759
      dxz     :     0.019939
      dyz     :     0.012118
      dx2y2   :     0.004551
      dxy     :     0.007321
      f0      :     0.001239  f :     0.005902
      f+1     :     0.001819
      f-1     :     0.000808
      f+2     :     0.000797
      f-2     :     0.000960
      f+3     :     0.000116
      f-3     :     0.000164

 17 H s       :     0.834932  s :     0.834932
      pz      :     0.005147  p :     0.022073
      px      :     0.008704
      py      :     0.008223

 18 H s       :     0.813900  s :     0.813900
      pz      :     0.004988  p :     0.022232
      px      :     0.004167
      py      :     0.013077

 19 H s       :     0.840103  s :     0.840103
      pz      :     0.005076  p :     0.022042
      px      :     0.003929
      py      :     0.013037

 20 H s       :     0.601145  s :     0.601145
      pz      :     0.015023  p :     0.045440
      px      :     0.018121
      py      :     0.012296

 21 H s       :     0.828643  s :     0.828643
      pz      :     0.005267  p :     0.022157
      px      :     0.009671
      py      :     0.007220

 22 H s       :     0.827998  s :     0.827998
      pz      :     0.010978  p :     0.021940
      px      :     0.006420
      py      :     0.004543

 23 H s       :     0.811065  s :     0.811065
      pz      :     0.005556  p :     0.022241
      px      :     0.009337
      py      :     0.007349



                     *******************************
                     * LOEWDIN POPULATION ANALYSIS *
                     *******************************

----------------------
LOEWDIN ATOMIC CHARGES
----------------------
   0 C :   -0.162502
   1 C :   -0.111381
   2 C :   -0.237079
   3 C :   -0.260894
   4 C :   -0.127494
   5 C :   -0.466735
   6 Cl:    0.407105
   7 O :    0.096825
   8 O :    0.332637
   9 C :   -0.240437
  10 C :   -0.418399
  11 C :   -0.143560
  12 C :   -0.457826
  13 C :   -0.138870
  14 C :   -0.098704
  15 Cl:    0.414969
  16 Cl:    0.423418
  17 H :    0.156395
  18 H :    0.167250
  19 H :    0.161897
  20 H :    0.208996
  21 H :    0.162403
  22 H :    0.161032
  23 H :    0.170953

-------------------------------
LOEWDIN REDUCED ORBITAL CHARGES
-------------------------------
  0 C s       :     2.769995  s :     2.769995
      pz      :     0.922129  p :     2.968534
      px      :     1.029136
      py      :     1.017269
      dz2     :     0.026641  d :     0.381237
      dxz     :     0.045591
      dyz     :     0.050221
      dx2y2   :     0.103029
      dxy     :     0.155755
      f0      :     0.003256  f :     0.042736
      f+1     :     0.003813
      f-1     :     0.004044
      f+2     :     0.008246
      f-2     :     0.001420
      f+3     :     0.011499
      f-3     :     0.010459

  1 C s       :     2.764531  s :     2.764531
      pz      :     0.898597  p :     2.930656
      px      :     1.042358
      py      :     0.989701
      dz2     :     0.025967  d :     0.373541
      dxz     :     0.084011
      dyz     :     0.018341
      dx2y2   :     0.129839
      dxy     :     0.115383
      f0      :     0.003167  f :     0.042653
      f+1     :     0.004519
      f-1     :     0.003280
      f+2     :     0.002793
      f-2     :     0.007559
      f+3     :     0.011284
      f-3     :     0.010052

  2 C s       :     2.710372  s :     2.710372
      pz      :     0.924426  p :     2.792534
      px      :     0.832429
      py      :     1.035679
      dz2     :     0.048303  d :     0.643510
      dxz     :     0.116119
      dyz     :     0.076651
      dx2y2   :     0.220441
      dxy     :     0.181996
      f0      :     0.006321  f :     0.090662
      f+1     :     0.009202
      f-1     :     0.005049
      f+2     :     0.013443
      f-2     :     0.008762
      f+3     :     0.025766
      f-3     :     0.022119

  3 C s       :     2.716288  s :     2.716288
      pz      :     0.880105  p :     2.776890
      px      :     0.944405
      py      :     0.952381
      dz2     :     0.046893  d :     0.673791
      dxz     :     0.112813
      dyz     :     0.109868
      dx2y2   :     0.196527
      dxy     :     0.207689
      f0      :     0.006439  f :     0.093925
      f+1     :     0.006754
      f-1     :     0.007285
      f+2     :     0.007903
      f-2     :     0.017285
      f+3     :     0.027008
      f-3     :     0.021252

  4 C s       :     2.767275  s :     2.767275
      pz      :     0.928490  p :     2.959024
      px      :     1.035154
      py      :     0.995380
      dz2     :     0.026997  d :     0.358536
      dxz     :     0.075336
      dyz     :     0.016821
      dx2y2   :     0.135262
      dxy     :     0.104121
      f0      :     0.003409  f :     0.042658
      f+1     :     0.004642
      f-1     :     0.003394
      f+2     :     0.002723
      f-2     :     0.007303
      f+3     :     0.010929
      f-3     :     0.010258

  5 C s       :     2.779274  s :     2.779274
      pz      :     0.933729  p :     2.986502
      px      :     0.961568
      py      :     1.091205
      dz2     :     0.042807  d :     0.635966
      dxz     :     0.096971
      dyz     :     0.091451
      dx2y2   :     0.211222
      dxy     :     0.193515
      f0      :     0.004291  f :     0.064993
      f+1     :     0.005451
      f-1     :     0.004664
      f+2     :     0.007369
      f-2     :     0.008000
      f+3     :     0.018862
      f-3     :     0.016355

  6 Cls       :     5.534145  s :     5.534145
      pz      :     3.828319  p :    10.935987
      px      :     3.309131
      py      :     3.798537
      dz2     :     0.012444  d :     0.110212
      dxz     :     0.033255
      dyz     :     0.003521
      dx2y2   :     0.032528
      dxy     :     0.028463
      f0      :     0.001401  f :     0.012551
      f+1     :     0.001868
      f-1     :     0.000354
      f+2     :     0.001563
      f-2     :     0.000694
      f+3     :     0.003287
      f-3     :     0.003384

  7 O s       :     3.333603  s :     3.333603
      pz      :     1.674654  p :     4.494585
      px      :     1.276732
      py      :     1.543199
      dz2     :     0.007348  d :     0.070145
      dxz     :     0.009102
      dyz     :     0.008183
      dx2y2   :     0.019745
      dxy     :     0.025767
      f0      :     0.000531  f :     0.004843
      f+1     :     0.000573
      f-1     :     0.000325
      f+2     :     0.000067
      f-2     :     0.000777
      f+3     :     0.000870
      f-3     :     0.001698

  8 O s       :     3.220820  s :     3.220820
      pz      :     1.537638  p :     4.328586
      px      :     1.366112
      py      :     1.424836
      dz2     :     0.014042  d :     0.111204
      dxz     :     0.021710
      dyz     :     0.016283
      dx2y2   :     0.033263
      dxy     :     0.025906
      f0      :     0.000684  f :     0.006753
      f+1     :     0.000551
      f-1     :     0.000855
      f+2     :     0.001292
      f-2     :     0.000700
      f+3     :     0.001295
      f-3     :     0.001376

  9 C s       :     2.719465  s :     2.719465
      pz      :     0.969663  p :     2.783238
      px      :     0.972650
      py      :     0.840924
      dz2     :     0.140288  d :     0.647889
      dxz     :     0.106756
      dyz     :     0.162661
      dx2y2   :     0.134095
      dxy     :     0.104090
      f0      :     0.009355  f :     0.089845
      f+1     :     0.009685
      f-1     :     0.020259
      f+2     :     0.016306
      f-2     :     0.011050
      f+3     :     0.012114
      f-3     :     0.011076

 10 C s       :     2.781503  s :     2.781503
      pz      :     0.946166  p :     2.969675
      px      :     0.991862
      py      :     1.031647
      dz2     :     0.138209  d :     0.605142
      dxz     :     0.125849
      dyz     :     0.126746
      dx2y2   :     0.109580
      dxy     :     0.104758
      f0      :     0.007642  f :     0.062080
      f+1     :     0.009236
      f-1     :     0.011683
      f+2     :     0.009716
      f-2     :     0.008153
      f+3     :     0.009209
      f-3     :     0.006442

 11 C s       :     2.774648  s :     2.774648
      pz      :     1.004715  p :     2.950533
      px      :     0.955445
      py      :     0.990374
      dz2     :     0.087715  d :     0.375452
      dxz     :     0.068938
      dyz     :     0.093373
      dx2y2   :     0.050736
      dxy     :     0.074689
      f0      :     0.006525  f :     0.042927
      f+1     :     0.005378
      f-1     :     0.008398
      f+2     :     0.007240
      f-2     :     0.005772
      f+3     :     0.004355
      f-3     :     0.005258

 12 C s       :     2.780079  s :     2.780079
      pz      :     1.018552  p :     2.983832
      px      :     1.013704
      py      :     0.951576
      dz2     :     0.124769  d :     0.629248
      dxz     :     0.107671
      dyz     :     0.148800
      dx2y2   :     0.133505
      dxy     :     0.114503
      f0      :     0.007672  f :     0.064666
      f+1     :     0.007925
      f-1     :     0.012590
      f+2     :     0.010790
      f-2     :     0.008240
      f+3     :     0.010082
      f-3     :     0.007367

 13 C s       :     2.772486  s :     2.772486
      pz      :     0.967274  p :     2.943478
      px      :     0.962688
      py      :     1.013516
      dz2     :     0.067262  d :     0.380097
      dxz     :     0.062644
      dyz     :     0.074942
      dx2y2   :     0.087343
      dxy     :     0.087906
      f0      :     0.002559  f :     0.042809
      f+1     :     0.005204
      f-1     :     0.008469
      f+2     :     0.006861
      f-2     :     0.005969
      f+3     :     0.008407
      f-3     :     0.005341

 14 C s       :     2.767556  s :     2.767556
      pz      :     0.983816  p :     2.923607
      px      :     0.943883
      py      :     0.995908
      dz2     :     0.091892  d :     0.365610
      dxz     :     0.064906
      dyz     :     0.090532
      dx2y2   :     0.043974
      dxy     :     0.074306
      f0      :     0.006638  f :     0.041930
      f+1     :     0.005387
      f-1     :     0.008888
      f+2     :     0.006650
      f-2     :     0.005223
      f+3     :     0.004393
      f-3     :     0.004752

 15 Cls       :     5.536485  s :     5.536485
      pz      :     3.708177  p :    10.927483
      px      :     3.800237
      py      :     3.419068
      dz2     :     0.016317  d :     0.108606
      dxz     :     0.010305
      dyz     :     0.030668
      dx2y2   :     0.027960
      dxy     :     0.023355
      f0      :     0.001143  f :     0.012457
      f+1     :     0.000246
      f-1     :     0.002541
      f+2     :     0.002480
      f-2     :     0.002023
      f+3     :     0.001960
      f-3     :     0.002064

 16 Cls       :     5.541428  s :     5.541428
      pz      :     3.419410  p :    10.914890
      px      :     3.687843
      py      :     3.807637
      dz2     :     0.036865  d :     0.107829
      dxz     :     0.031515
      dyz     :     0.020697
      dx2y2   :     0.007519
      dxy     :     0.011233
      f0      :     0.002764  f :     0.012435
      f+1     :     0.003463
      f-1     :     0.001769
      f+2     :     0.001807
      f-2     :     0.001994
      f+3     :     0.000288
      f-3     :     0.000349

 17 H s       :     0.782742  s :     0.782742
      pz      :     0.014437  p :     0.060863
      px      :     0.023736
      py      :     0.022690

 18 H s       :     0.771336  s :     0.771336
      pz      :     0.013866  p :     0.061414
      px      :     0.011905
      py      :     0.035644

 19 H s       :     0.776888  s :     0.776888
      pz      :     0.014439  p :     0.061215
      px      :     0.011331
      py      :     0.035444

 20 H s       :     0.640902  s :     0.640902
      pz      :     0.041921  p :     0.150102
      px      :     0.062422
      py      :     0.045759

 21 H s       :     0.776332  s :     0.776332
      pz      :     0.014686  p :     0.061265
      px      :     0.026617
      py      :     0.019963

 22 H s       :     0.778506  s :     0.778506
      pz      :     0.029952  p :     0.060461
      px      :     0.017761
      py      :     0.012749

 23 H s       :     0.767738  s :     0.767738
      pz      :     0.015336  p :     0.061309
      px      :     0.025818
      py      :     0.020155



                      *****************************
                      * MAYER POPULATION ANALYSIS *
                      *****************************

  NA   - Mulliken gross atomic population
  ZA   - Total nuclear charge
  QA   - Mulliken gross atomic charge
  VA   - Mayer's total valence
  BVA  - Mayer's bonded valence
  FA   - Mayer's free valence

  ATOM       NA         ZA         QA         VA         BVA        FA
  0 C      6.2117     6.0000    -0.2117     3.9597     3.9597     0.0000
  1 C      6.2135     6.0000    -0.2135     3.9191     3.9191     0.0000
  2 C      5.7557     6.0000     0.2443     3.6089     3.6089     0.0000
  3 C      5.8990     6.0000     0.1010     4.1072     4.1072     0.0000
  4 C      6.2744     6.0000    -0.2744     3.9824     3.9824    -0.0000
  5 C      5.8082     6.0000     0.1918     3.7312     3.7312     0.0000
  6 Cl    17.1222    17.0000    -0.1222     1.2252     1.2252    -0.0000
  7 O      8.3751     8.0000    -0.3751     2.1503     2.1503     0.0000
  8 O      8.2548     8.0000    -0.2548     2.1904     2.1904     0.0000
  9 C      5.7411     6.0000     0.2589     3.7982     3.7982     0.0000
 10 C      5.9582     6.0000     0.0418     3.7898     3.7898    -0.0000
 11 C      6.2306     6.0000    -0.2306     3.9701     3.9701     0.0000
 12 C      5.8207     6.0000     0.1793     3.7288     3.7288    -0.0000
 13 C      6.1823     6.0000    -0.1823     3.9608     3.9608    -0.0000
 14 C      6.2138     6.0000    -0.2138     3.9847     3.9847    -0.0000
 15 Cl    17.1107    17.0000    -0.1107     1.2364     1.2364    -0.0000
 16 Cl    17.0920    17.0000    -0.0920     1.2672     1.2672     0.0000
 17 H      0.8570     1.0000     0.1430     0.9747     0.9747    -0.0000
 18 H      0.8361     1.0000     0.1639     0.9687     0.9687     0.0000
 19 H      0.8621     1.0000     0.1379     0.9917     0.9917    -0.0000
 20 H      0.6466     1.0000     0.3534     0.8962     0.8962     0.0000
 21 H      0.8508     1.0000     0.1492     0.9824     0.9824     0.0000
 22 H      0.8499     1.0000     0.1501     0.9718     0.9718    -0.0000
 23 H      0.8333     1.0000     0.1667     0.9651     0.9651    -0.0000

  Mayer bond orders larger than 0.100000
B(  0-C ,  1-C ) :   1.3985 B(  0-C ,  5-C ) :   1.3317 B(  0-C ,  6-Cl) :   0.1030 
B(  0-C , 17-H ) :   0.9642 B(  1-C ,  2-C ) :   1.3089 B(  1-C , 18-H ) :   0.9455 
B(  2-C ,  3-C ) :   1.2792 B(  2-C ,  8-O ) :   0.9488 B(  3-C ,  4-C ) :   1.3701 
B(  3-C ,  7-O ) :   1.2175 B(  4-C ,  5-C ) :   1.3591 B(  4-C ,  6-Cl) :   0.1007 
B(  4-C , 19-H ) :   0.9732 B(  5-C ,  6-Cl) :   0.9243 B(  7-O , 20-H ) :   0.8464 
B(  8-O ,  9-C ) :   1.0291 B(  9-C , 10-C ) :   1.2674 B(  9-C , 14-C ) :   1.3541 
[...]
      px      :     0.962433
      py      :     1.069117
      dz2     :     0.047839  d :     0.617482
      dxz     :     0.093717
      dyz     :     0.087973
      dx2y2   :     0.188469
      dxy     :     0.199485
      f0      :     0.004254  f :     0.062320
      f+1     :     0.005350
      f-1     :     0.004743
      f+2     :     0.007278
      f-2     :     0.007833
      f+3     :     0.021653
      f-3     :     0.011207

  6 Cls       :     5.557453  s :     5.557453
      pz      :     3.839375  p :    10.954744
      px      :     3.363574
      py      :     3.751795
      dz2     :     0.011867  d :     0.100508
      dxz     :     0.026256
      dyz     :     0.005967
      dx2y2   :     0.026859
      dxy     :     0.029558
      f0      :     0.001201  f :     0.011250
      f+1     :     0.001587
      f-1     :     0.000486
      f+2     :     0.000855
      f-2     :     0.001129
      f+3     :     0.002734
      f-3     :     0.003257

  7 O s       :     3.329118  s :     3.329118
      pz      :     1.674495  p :     4.487208
      px      :     1.259429
      py      :     1.553284
      dz2     :     0.007992  d :     0.070893
      dxz     :     0.010560
      dyz     :     0.005797
      dx2y2   :     0.015942
      dxy     :     0.030603
      f0      :     0.000433  f :     0.004868
      f+1     :     0.000746
      f-1     :     0.000305
      f+2     :     0.000117
      f-2     :     0.000697
      f+3     :     0.001180
      f-3     :     0.001390

  8 O s       :     3.226921  s :     3.226921
      pz      :     1.517291  p :     4.327337
      px      :     1.364592
      py      :     1.445454
      dz2     :     0.017090  d :     0.110913
      dxz     :     0.024486
      dyz     :     0.018366
      dx2y2   :     0.026325
      dxy     :     0.024645
      f0      :     0.000738  f :     0.006609
      f+1     :     0.000649
      f-1     :     0.000862
      f+2     :     0.001272
      f-2     :     0.000938
      f+3     :     0.001118
      f-3     :     0.001033

  9 C s       :     2.718658  s :     2.718658
      pz      :     0.953595  p :     2.779670
      px      :     0.967659
      py      :     0.858416
      dz2     :     0.153234  d :     0.656957
      dxz     :     0.134907
      dyz     :     0.149695
      dx2y2   :     0.122725
      dxy     :     0.096396
      f0      :     0.011713  f :     0.090977
      f+1     :     0.012017
      f-1     :     0.018963
      f+2     :     0.016844
      f-2     :     0.012260
      f+3     :     0.009730
      f-3     :     0.009451

 10 C s       :     2.781948  s :     2.781948
      pz      :     0.952318  p :     2.968233
      px      :     1.006828
      py      :     1.009087
      dz2     :     0.152918  d :     0.597988
      dxz     :     0.144405
      dyz     :     0.112755
      dx2y2   :     0.098222
      dxy     :     0.089688
      f0      :     0.009427  f :     0.061258
      f+1     :     0.010234
      f-1     :     0.010718
      f+2     :     0.009428
      f-2     :     0.007961
      f+3     :     0.007088
      f-3     :     0.006402

 11 C s       :     2.775402  s :     2.775402
      pz      :     1.023998  p :     2.951608
      px      :     0.965885
      py      :     0.961725
      dz2     :     0.104584  d :     0.375340
      dxz     :     0.084184
      dyz     :     0.086890
      dx2y2   :     0.043759
      dxy     :     0.055923
      f0      :     0.006979  f :     0.042999
      f+1     :     0.006537
      f-1     :     0.008753
      f+2     :     0.007391
      f-2     :     0.006031
      f+3     :     0.002651
      f-3     :     0.004656

 12 C s       :     2.783993  s :     2.783993
      pz      :     1.008809  p :     2.977463
      px      :     1.023931
      py      :     0.944722
      dz2     :     0.127699  d :     0.612011
      dxz     :     0.141960
      dyz     :     0.134665
      dx2y2   :     0.107326
      dxy     :     0.100360
      f0      :     0.009450  f :     0.062301
      f+1     :     0.009206
      f-1     :     0.011195
      f+2     :     0.009689
      f-2     :     0.008497
      f+3     :     0.007823
      f-3     :     0.006442

 13 C s       :     2.772880  s :     2.772880
      pz      :     0.982759  p :     2.943555
      px      :     0.987300
      py      :     0.973496
      dz2     :     0.081057  d :     0.380246
      dxz     :     0.083099
      dyz     :     0.053845
      dx2y2   :     0.084602
      dxy     :     0.077643
      f0      :     0.004185  f :     0.042848
      f+1     :     0.006326
      f-1     :     0.006606
      f+2     :     0.007104
      f-2     :     0.006166
      f+3     :     0.006673
      f-3     :     0.005788

 14 C s       :     2.764618  s :     2.764618
      pz      :     1.004468  p :     2.934494
      px      :     0.964091
      py      :     0.965935
      dz2     :     0.108627  d :     0.366862
      dxz     :     0.077837
      dyz     :     0.080959
      dx2y2   :     0.039447
      dxy     :     0.059992
      f0      :     0.007011  f :     0.042321
      f+1     :     0.006509
      f-1     :     0.009026
      f+2     :     0.006944
      f-2     :     0.005734
      f+3     :     0.002625
      f-3     :     0.004472

 15 Cls       :     5.556072  s :     5.556072
      pz      :     3.629898  p :    10.949470
      px      :     3.755218
      py      :     3.564355
      dz2     :     0.017635  d :     0.101688
      dxz     :     0.017832
      dyz     :     0.027409
      dx2y2   :     0.020906
      dxy     :     0.017906
      f0      :     0.001192  f :     0.011398
      f+1     :     0.000893
      f-1     :     0.002178
      f+2     :     0.002064
      f-2     :     0.002656
      f+3     :     0.001240
      f-3     :     0.001175

 16 Cls       :     5.549769  s :     5.549769
      pz      :     3.377147  p :    10.924547
      px      :     3.727147
      py      :     3.820253
      dz2     :     0.038151  d :     0.104986
      dxz     :     0.030658
      dyz     :     0.022454
      dx2y2   :     0.005198
      dxy     :     0.008525
      f0      :     0.003184  f :     0.011988
      f+1     :     0.003577
      f-1     :     0.001930
      f+2     :     0.001388
      f-2     :     0.001545
      f+3     :     0.000157
      f-3     :     0.000207

 17 H s       :     0.781025  s :     0.781025
      pz      :     0.014471  p :     0.060705
      px      :     0.027653
      py      :     0.018580

 18 H s       :     0.771580  s :     0.771580
      pz      :     0.013973  p :     0.059878
      px      :     0.010575
      py      :     0.035330

 19 H s       :     0.776177  s :     0.776177
      pz      :     0.015028  p :     0.061113
      px      :     0.010188
      py      :     0.035897

 20 H s       :     0.638150  s :     0.638150
      pz      :     0.039442  p :     0.149405
      px      :     0.055863
      py      :     0.054100

 21 H s       :     0.775609  s :     0.775609
      pz      :     0.012743  p :     0.060950
      px      :     0.029804
      py      :     0.018404

 22 H s       :     0.778019  s :     0.778019
      pz      :     0.031612  p :     0.060223
      px      :     0.016033
      py      :     0.012579

 23 H s       :     0.767065  s :     0.767065
      pz      :     0.012963  p :     0.061767
      px      :     0.029640
      py      :     0.019163



                      *****************************
                      * MAYER POPULATION ANALYSIS *
                      *****************************

  NA   - Mulliken gross atomic population
  ZA   - Total nuclear charge
  QA   - Mulliken gross atomic charge
  VA   - Mayer's total valence
  BVA  - Mayer's bonded valence
  FA   - Mayer's free valence

  ATOM       NA         ZA         QA         VA         BVA        FA
  0 C      6.2151     6.0000    -0.2151     3.9487     3.9487     0.0000
  1 C      6.1860     6.0000    -0.1860     3.9445     3.9445    -0.0000
  2 C      5.8090     6.0000     0.1910     3.5967     3.5967    -0.0000
  3 C      5.8608     6.0000     0.1392     4.1363     4.1363     0.0000
  4 C      6.2974     6.0000    -0.2974     3.9935     3.9935     0.0000
  5 C      5.7814     6.0000     0.2186     3.6910     3.6910     0.0000
  6 Cl    17.1301    17.0000    -0.1301     1.2068     1.2068     0.0000
  7 O      8.3622     8.0000    -0.3622     2.1694     2.1694     0.0000
  8 O      8.2560     8.0000    -0.2560     2.1880     2.1880    -0.0000
  9 C      5.7158     6.0000     0.2842     3.7700     3.7700    -0.0000
 10 C      5.9635     6.0000     0.0365     3.7732     3.7732    -0.0000
 11 C      6.2243     6.0000    -0.2243     3.9691     3.9691     0.0000
 12 C      5.8163     6.0000     0.1837     3.7094     3.7094     0.0000
 13 C      6.2021     6.0000    -0.2021     3.9658     3.9658    -0.0000
 14 C      6.2172     6.0000    -0.2172     3.9261     3.9261    -0.0000
 15 Cl    17.1244    17.0000    -0.1244     1.2134     1.2134     0.0000
 16 Cl    17.1010    17.0000    -0.1010     1.2567     1.2567    -0.0000
 17 H      0.8538     1.0000     0.1462     0.9739     0.9739     0.0000
 18 H      0.8433     1.0000     0.1567     0.9689     0.9689    -0.0000
 19 H      0.8599     1.0000     0.1401     0.9895     0.9895     0.0000
 20 H      0.6468     1.0000     0.3532     0.8988     0.8988     0.0000
 21 H      0.8505     1.0000     0.1495     0.9825     0.9825    -0.0000
 22 H      0.8499     1.0000     0.1501     0.9728     0.9728    -0.0000
 23 H      0.8333     1.0000     0.1667     0.9677     0.9677    -0.0000

  Mayer bond orders larger than 0.100000
B(  0-C ,  1-C ) :   1.3807 B(  0-C ,  5-C ) :   1.3275 B(  0-C ,  6-Cl) :   0.1017 
B(  0-C , 17-H ) :   0.9678 B(  1-C ,  2-C ) :   1.3459 B(  1-C , 18-H ) :   0.9577 
B(  2-C ,  3-C ) :   1.2678 B(  2-C ,  8-O ) :   0.8869 B(  3-C ,  4-C ) :   1.3597 
B(  3-C ,  7-O ) :   1.2506 B(  4-C ,  5-C ) :   1.3561 B(  4-C , 19-H ) :   0.9714 
B(  5-C ,  6-Cl) :   0.9101 B(  7-O , 20-H ) :   0.8376 B(  8-O ,  9-C ) :   1.0522 
B(  9-C , 10-C ) :   1.2398 B(  9-C , 14-C ) :   1.3458 B( 10-C , 11-C ) :   1.3363 
B( 10-C , 16-Cl) :   1.0297 B( 11-C , 12-C ) :   1.3167 B( 11-C , 15-Cl) :   0.1004 
B( 11-C , 21-H ) :   0.9672 B( 12-C , 13-C ) :   1.3322 B( 12-C , 15-Cl) :   0.9164 
B( 13-C , 14-C ) :   1.3959 B( 13-C , 22-H ) :   0.9655 B( 14-C , 23-H ) :   0.9444 


-------
TIMINGS
-------

Total SCF time: 0 days 0 hours 0 min 22 sec 

Total time                  ....      22.531 sec
Sum of individual times     ....      22.470 sec  ( 99.7%)

SCF preparation             ....       0.247 sec  (  1.1%)
Fock matrix formation       ....      21.758 sec  ( 96.6%)
  Startup                   ....       0.016 sec  (  0.1% of F)
  Split-RI-J                ....       5.346 sec  ( 24.6% of F)
  XC integration            ....       8.013 sec  ( 36.8% of F)
    Basis function eval.    ....       2.123 sec  ( 26.5% of XC)
    Density eval.           ....       2.378 sec  ( 29.7% of XC)
    XC-Functional eval.     ....       0.111 sec  (  1.4% of XC)
    XC-Potential eval.      ....       3.215 sec  ( 40.1% of XC)
  CPCM terms                ....       8.326 sec  ( 38.3% of F)
Diagonalization             ....       0.000 sec  (  0.0%)
Density matrix formation    ....       0.035 sec  (  0.2%)
Total Energy calculation    ....       0.028 sec  (  0.1%)
Population analysis         ....       0.064 sec  (  0.3%)
Orbital Transformation      ....       0.056 sec  (  0.2%)
Orbital Orthonormalization  ....       0.000 sec  (  0.0%)
DIIS solution               ....       0.065 sec  (  0.3%)
SOSCF solution              ....       0.217 sec  (  1.0%)
Finished LeanSCF after  22.6 sec

Maximum memory used throughout the entire LEANSCF-calculation: 109.7 MB

-------------------------   --------------------
FINAL SINGLE POINT ENERGY     -1991.526505587244
-------------------------   --------------------

                                *** OPTIMIZATION RUN DONE ***


------------------------------------------------------------------------------
                              ORCA PROPERTY CALCULATIONS
------------------------------------------------------------------------------

GBWName                                 ... Triclosan\Triclosan_PBE_def2-TZVP\Triclosan_PBE_def2-TZVP.orcainp.gbw
Number of atoms                         ...     24
Number of basis functions               ...    587
Max core memory                         ...   1024 MB

Electric properties:
Dipole moment                           ... YES
Quadrupole moment                       ...  NO
Static polarizability (Dipole/Dipole)   ...  NO
Static polarizability (Dipole/Quad.)    ...  NO
Static polarizability (Quad./Quad.)     ...  NO
Static polarizability (Velocity)        ...  NO

Atomic electric properties:
Dipole moment                           ...  NO
Quadrupole moment                       ...  NO
Static polarizability                   ...  NO

Choice of electric origin               ... Center of mass
Position of electric origin             ...     4.650392     3.846503    -1.062383

General magnetic properties:
Magnetizability                         ...  NO

EPR properties:
g-Tensor (aka g-matrix)                 ...  NO
Zero-Field splitting spin-orbit         ...  NO
Zero-field splitting spin-spin          ...  NO
Hyperfine couplings                     ...  NO (   0 nuclei)
Quadrupole couplings                    ...  NO (   0 nuclei)
Contact density                         ...  NO (   0 nuclei)

NMR properties:
Chemical shifts                         ...  NO (   0 nuclei)
Spin-rotation constants                 ...  NO (   0 nuclei)
Spin-spin couplings                     ...  NO (   0 nuclei,    0 pairs)

Choice of magnetic origin               ... GIAO
Position of magnetic origin             ...     0.000000     0.000000     0.000000

Properties with geometric perturbations:
SCF Hessian                             ...  NO
IR spectrum                             ...  NO
VCD spectrum                            ...  NO
X-ray spectroscopy properties:
SCF XES/XAS/RIXS spectra                ...  NO


-------------
DIPOLE MOMENT
-------------

Method             : SCF
Type of density    : Electron Density
Multiplicity       :   1
Irrep              :   0
Energy             : -1991.5265055872439461 Eh
Relativity type    : 
Basis              : AO
                                X                 Y                 Z
Electronic contribution:      4.502093485       3.517915817       0.992149990
Nuclear contribution   :     -4.409304919      -3.100026588      -1.275769840
                        -----------------------------------------
Total Dipole Moment    :      0.092788566       0.417889229      -0.283619850
                        -----------------------------------------
Magnitude (a.u.)       :      0.513499119
Magnitude (Debye)      :      1.305211033



--------------------
Rotational spectrum 
--------------------
 
Rotational constants in cm-1:             0.021769             0.004954             0.004380 
Rotational constants in MHz :           652.606801           148.519908           131.298727 

Dipole components along the rotational axes: 
x,y,z [a.u.] :    -0.388870    -0.323863     0.087031 
x,y,z [Debye]:    -0.988429    -0.823194     0.221216 

 

Dipole moment calculation done in   0.0 sec 

Maximum memory used throughout the entire PROP-calculation: 65.0 MB

--------------------------------
SUGGESTED CITATIONS FOR THIS RUN
--------------------------------

Below you find a list of papers that are relevant to this ORCA run
We neither can nor want to force you to cite these papers, but we appreciate if you do
You receive ORCA, which is the product of decades of hard work by many enthusiastic individuals, for free
The only thing we kindly ask in return is that you cite our papers,
We deeply appreciate it, if you show your appreciation for ORCA by not just citing the generic ORCA reference.

Please note that relegating all ORCA citations to the supporting information does *not* help us.
SI sections are not indexed - citations you put there will not count into any citation statistics
But we need these citations in order to attract the funding resources that allow us to do what we are doing

Therefore, if you are a happy ORCA user, please consider citing a few of the papers listed below in the main body of your paper

In addition to the list printed below, the program has created the file Triclosan\Triclosan_PBE_def2-TZVP\Triclosan_PBE_def2-TZVP.orcainp.bibtex that contains the list in bibtex format
You can import this file easily into all common literature databanks and citation aid programs


List of essential papers. We consider these as the minimum necessary citations

  1. Neese,F.
     Software update: the ORCA program system, version 5.0
     WIRES Comput. Molec. Sci., 2022 12(1)e1606
     doi.org/10.1002/wcms.1606

List of papers to cite with high priority. The work reported in these papers was absolutely
necessary for this run to complete.
Our perspective: the developers of density functionals and basis sets usually get cited in chemistry papers
Good! But without the algorithms to do something with them, the functionals or basis sets would not do anything.
Hence, in our opinion, the algorithm design and method developments papers are equally worthy of getting cited

  1. Neese,F.
     An improvement of the resolution of the identity approximation for the formation of the Coulomb matrix
     J. Comp. Chem., 2003 24(14)1740-1747
     doi.org/10.1002/jcc.10318
  2. Garcia-Rates,M.; Neese,F.
     Effect of the Solute Cavity on the Solvation Energy and its Derivatives within the Framework of the Gaussian Charge Scheme
     J. Comput. Chem., 2020 41 922-939
     doi.org/10.1002/jcc.26139
  3. Neese,F.
     The SHARK Integral Generation and Digestion System
     J. Comp. Chem., 2022  1-16
     doi.org/10.1002/jcc.26942

List of suggested additional citations. These are papers that are important in the 'surrounding' of 
of this run, or papers that preceded the highly important papers. If you like your results we are grateful for a citation.

  1. Neese,F.
     The ORCA program system
     WIRES Comput. Molec. Sci., 2012 2(1)73-78
     doi.org/10.1002/wcms.81
  2. Neese,F.
     Software update: the ORCA program system, version 4.0
     WIRES Comput. Molec. Sci., 2018 8(1)1-6
     doi.org/10.1002/wcms.1327
  3. Neese,F.; Wennmohs,F.; Becker,U.; Riplinger,C.
     The ORCA quantum chemistry program package
     J. Chem. Phys., 2020 152 Art. No. L224108
     doi.org/10.1063/5.0004608

List of optional additional citations

  1. Neese,F.
     Approximate second-order SCF convergence for spin unrestricted wavefunctions
     Chem. Phys. Lett., 2000 325(1-3)93-98
     doi.org/10.1016/s0009-2614(00)00662-x

Timings for individual modules:

Sum of individual times          ...      892.490 sec (=  14.875 min)
Startup calculation              ...       16.830 sec (=   0.280 min)   1.9 %
SCF iterations                   ...      609.887 sec (=  10.165 min)  68.3 %
Property calculations            ...        0.116 sec (=   0.002 min)   0.0 %
SCF Gradient evaluation          ...      265.550 sec (=   4.426 min)  29.8 %
Geometry relaxation              ...        0.107 sec (=   0.002 min)   0.0 %
                             ****ORCA TERMINATED NORMALLY****
TOTAL RUN TIME: 0 days 0 hours 14 minutes 53 seconds 992 msec
