
                                 *****************
                                 * O   R   C   A *
                                 *****************

                                            #,                                       
                                            ###                                      
                                            ####                                     
                                            #####                                    
                                            ######                                   
                                           ########,                                 
                                     ,,################,,,,,                         
                               ,,#################################,,                 
                          ,,##########################################,,             
                       ,#########################################, ''#####,          
                    ,#############################################,,   '####,        
                  ,##################################################,,,,####,       
                ,###########''''           ''''###############################       
              ,#####''   ,,,,##########,,,,          '''####'''          '####       
            ,##' ,,,,###########################,,,                        '##       
           ' ,,###''''                  '''############,,,                           
         ,,##''                                '''############,,,,        ,,,,,,###''
      ,#''                                            '''#######################'''  
     '                                                          ''''####''''         
             ,#######,   #######,   ,#######,      ##                                
            ,#'     '#,  ##    ##  ,#'     '#,    #''#        ,####,   ,####,        
            ##       ##  ##   ,#'  ##            #'  '#       #'       #'  '#        
            ##       ##  #######   ##           ,######,      #####,   #    #        
            '#,     ,#'  ##    ##  '#,     ,#' ,#      #,     #,   #   #,  ,#        
             '#######'   ##     ##  '#######'  #'      '#     '####' # '####'        



                #########################################################
                #                        -***-                          #
                #          Department of theory and spectroscopy        #
                #                                                       #
                #                      Frank Neese                      #
                #                                                       #
                #     Directorship, Architecture, Infrastructure        #
                #                    SHARK, DRIVERS                     #
                #        Core code/Algorithms in most modules           #
                #                                                       #
                #        Max Planck Institute fuer Kohlenforschung      #
                #                Kaiser Wilhelm Platz 1                 #
                #                 D-45470 Muelheim/Ruhr                 #
                #                      Germany                          #
                #                                                       #
                #                  All rights reserved                  #
                #                        -***-                          #
                #########################################################


                         Program Version 6.0.0  -   RELEASE   -


 With contributions from (in alphabetic order):
   Daniel Aravena         : Magnetic Suceptibility
   Michael Atanasov       : Ab Initio Ligand Field Theory (pilot matlab implementation)
   Alexander A. Auer      : GIAO ZORA, VPT2 properties, NMR spectrum
   Ute Becker             : All parallelization in ORCA, NUMFREQ, NUMCALC
   Giovanni Bistoni       : ED, misc. LED, open-shell LED, HFLD
   Martin Brehm           : Molecular dynamics
   Dmytro Bykov           : pre 5.0 version of the SCF Hessian
   Marcos Casanova-Páez   : Triplet and SCS-CIS(D). UHF-(DLPNO)-IP/EA/STEOM-CCSD. UHF-CVS-IP/STEOM-CCSD
   Vijay G. Chilkuri      : MRCI spin determinant printing, contributions to CSF-ICE
   Pauline Colinet        : FMM embedding
   Dipayan Datta          : RHF DLPNO-CCSD density
   Achintya Kumar Dutta   : EOM-CC, STEOM-CC
   Nicolas Foglia         : Exact transition moments, OPA infrastructure, MCD improvements
   Dmitry Ganyushin       : Spin-Orbit,Spin-Spin,Magnetic field MRCI
   Miquel Garcia          : C-PCM and meta-GGA Hessian, CCSD/C-PCM, Gaussian charge scheme
   Tiago L. C. Gouveia    : GS-ROHF, GS-ROCIS
   Yang Guo               : DLPNO-NEVPT2, F12-NEVPT2, CIM, IAO-localization
   Andreas Hansen         : Spin unrestricted coupled pair/coupled cluster methods
   Ingolf Harden          : AUTO-CI MPn and infrastructure 
   Benjamin Helmich-Paris : MC-RPA, TRAH-(SCF,CASSCF), AVAS, COSX integrals, SCF dyn. polar.
   Lee Huntington         : MR-EOM, pCC
   Robert Izsak           : Overlap fitted RIJCOSX, COSX-SCS-MP3, EOM
   Riya Kayal             : Wick's Theorem for AUTO-CI, AUTO-CI UHF-CCSDT
   Emily Kempfer          : AUTO-CI, RHF CISDT and CCSDT
   Christian Kollmar      : KDIIS, OOCD, Brueckner-CCSD(T), CCSD density, CASPT2, CASPT2-K, improved NEVPT2
   Axel Koslowski         : Symmetry handling
   Simone Kossmann        : Meta GGA functionals, TD-DFT gradient, OOMP2, (MP2 Hessian; deprecated post 5.0)
   Lucas Lang             : DCDCAS
   Marvin Lechner         : AUTO-CI (C++ implementation), FIC-MRCC
   Spencer Leger          : CASSCF response
   Dagmar Lenk            : GEPOL surface, SMD, ORCA-2-JSON
   Dimitrios Liakos       : Extrapolation schemes; Compound Job, initial MDCI parallelization
   Dimitrios Manganas     : Further ROCIS development; embedding schemes. LFT, Crystal Embedding
   Dimitrios Pantazis     : SARC Basis sets
   Anastasios Papadopoulos: AUTO-CI, single reference methods and gradients
   Taras Petrenko         : pre 6.0 DFT Hessian and TD-DFT gradient, (ASA, deprecated), ECA, 1-Electron XAS/XES, NRVS
   Peter Pinski           : DLPNO-MP2, DLPNO-MP2 Gradient
   Christoph Reimann      : Effective Core Potentials
   Marius Retegan         : Local ZFS, SOC
   Christoph Riplinger    : Optimizer, TS searches, QM/MM, DLPNO-CCSD(T), (RO)-DLPNO pert. Triples
   Michael Roemelt        : Original ROCIS implementation
   Masaaki Saitow         : Open-shell DLPNO-CCSD energy and density
   Barbara Sandhoefer     : DKH picture change effects
   Kantharuban Sivalingam : CASSCF convergence/infrastructure, NEVPT2 and variants, FIC-MRCI
   Bernardo de Souza      : ESD, SOC TD-DFT
   Georgi Stoychev        : AutoAux, RI-MP2 NMR, DLPNO-MP2 response, X2C
   Van Anh Tran           : RI-MP2 g-tensors
   Willem Van den Heuvel  : Paramagnetic NMR
   Zikuan Wang            : NOTCH, Electric field optimization 
   Frank Wennmohs         : Technical directorship and infrastructure
   Hang Xu                : AUTO-CI-Response properties 


 We gratefully acknowledge several colleagues who have allowed us to
 interface, adapt or use parts of their codes:
   Stefan Grimme, W. Hujo, H. Kruse, P. Pracht,  : VdW corrections, initial TS optimization,
                  C. Bannwarth, S. Ehlert,         DFT functionals, gCP, sTDA/sTD-DF
                  L. Wittmann, M. Mueller
   Ed Valeev, F. Pavosevic, A. Kumar             : LibInt (2-el integral package), F12 methods
   Garnet Chan, S. Sharma, J. Yang, R. Olivares  : DMRG
   Ulf Ekstrom                                   : XCFun DFT Library
   Mihaly Kallay                                 : mrcc  (arbitrary order and MRCC methods)
   Frank Weinhold                                : gennbo (NPA and NBO analysis)
   Simon Mueller                                 : openCOSMO-RS
   Christopher J. Cramer and Donald G. Truhlar   : smd solvation model
   Lars Goerigk                                  : TD-DFT with DH, B97 family of functionals
   V. Asgeirsson, H. Jonsson                     : NEB implementation
   FAccTs GmbH                                   : IRC, NEB, NEB-TS, DLPNO-Multilevel, CI-OPT
                                                   MM, QMMM, 2- and 3-layer-ONIOM, Crystal-QMMM,
                                                   LR-CPCM, SF, NACMEs, symmetry and pop. for TD-DFT,
                                                   nearIR, NL-DFT gradient (VV10), updates on ESD,
                                                   ML-optimized integration grids, MBIS, APM,
                                                   GOAT, DOCKER, SOLVATOR, interface openCOSMO-RS
   S Lehtola, MJT Oliveira, MAL Marques          : LibXC Library
   Liviu Ungur et al                             : ANISO software


 Your calculation uses the libint2 library for the computation of 2-el integrals
 For citations please refer to: http://libint.valeyev.net

 Your ORCA version has been built with support for libXC version: 6.2.2
 For citations please refer to: https://libxc.gitlab.io

 This ORCA versions uses:
   CBLAS   interface :  Fast vector & matrix operations
   LAPACKE interface :  Fast linear algebra routines
   Shared memory     :  Shared parallel matrices


Warning: RI is on but no J-basis has been assigned. Assigning Def2/J (nothing to worry about!)
================================================================================

----- Orbital basis set information -----
Your calculation utilizes the basis: 6-311+G**
   H, Li - Ne  : R. Krishnan, J. S. Binkley, R. Seeger and J. A. Pople, J. Chem. Phys. 72, 650 (1980).
   Na - Ar     : A. D. McLean and G. S. Chandler J. Chem. Phys. 72, 5639, (1980).
   K  - Ca     : J.-P. Blaudeau, M. P. McGrath, L. A. Curtiss and L. Radom, J. Chem. Phys. 107, 5016 (1997).
   Ga - Kr     : L. A. Curtiss, M. P. McGrath, J.-P. Blandeau, N. E. Davis, R. C. Binning and L. Radom, J. Chem. Phys. 103, 6104 (1995).
   Pol./Diff.
   H, Li - Cl  : T. Clark, J. Chandrasekhar and P. v. R. Schleyer, J. Comp. Chem. 4, 294 (1983).
   H - Ne      : M. J. Frisch, J. A. Pople and J. S. Binkley, J. Chem. Phys. 80, 3265 (1984).

----- AuxJ basis set information -----
Your calculation utilizes the auxiliary basis: def2/J
   F. Weigend, Phys. Chem. Chem. Phys. 8, 1057 (2006).

================================================================================
                                        WARNINGS
                       Please study these warnings very carefully!
================================================================================


WARNING: Geometry Optimization
  ===> : Switching off AutoStart
         For restart on a previous wavefunction, please use MOREAD

================================================================================
                                       INPUT FILE
================================================================================
NAME = Triclosan\Triclosan_PBE_6-311+G\Triclosan_PBE_6-311+G.orcainp
|  1> # ORCA input file
|  2> # 
|  3> !PBE 6-311+G** Opt CPCM(WATER)
|  4> * xyz 0 1
|  5>    C       -0.49838         1.45672         0.09896
|  6>    C        0.83636         1.86187         0.13987
|  7>    C        1.85850         0.90964         0.07692
|  8>    C        1.52705        -0.44553         0.10327
|  9>    C        0.19399        -0.85911         0.06588
| 10>    C       -0.81311         0.09845         0.04328
| 11>   Cl       -2.45804        -0.38995        -0.04430
| 12>    O        2.48623        -1.41804         0.15924
| 13>    O        3.19540         1.23915         0.00408
| 14>    C        3.55840         2.36555        -0.71342
| 15>    C        4.59924         3.16189        -0.21840
| 16>    C        4.97545         4.33057        -0.88996
| 17>    C        4.31222         4.69779        -2.05616
| 18>    C        3.30213         3.89395        -2.58058
| 19>    C        2.94419         2.71337        -1.92599
| 20>   Cl        4.74503         6.15332        -2.86475
| 21>   Cl        5.43890         2.74189         1.23085
| 22>    H       -1.28677         2.20447         0.09898
| 23>    H        1.06264         2.92223         0.19335
| 24>    H       -0.04081        -1.92109         0.05235
| 25>    H        3.32941        -0.97731         0.37369
| 26>    H        5.77651         4.95189        -0.49678
| 27>    H        2.78688         4.18033        -3.49530
| 28>    H        2.16802         2.08687        -2.36091
| 29> **                         ****END OF INPUT****
================================================================================

                       *****************************
                       * Geometry Optimization Run *
                       *****************************

Geometry optimization settings:
Update method            Update   .... BFGS
Choice of coordinates    CoordSys .... (2022) Redundant Internals
Initial Hessian          InHess   .... Almloef's Model
Max. no of cycles        MaxIter  .... 72

Convergence Tolerances:
Energy Change            TolE     ....  5.0000e-06 Eh
Max. Gradient            TolMAXG  ....  3.0000e-04 Eh/bohr
RMS Gradient             TolRMSG  ....  1.0000e-04 Eh/bohr
Max. Displacement        TolMAXD  ....  4.0000e-03 bohr
RMS Displacement         TolRMSD  ....  2.0000e-03 bohr
Strict Convergence                .... False

------------------------------------------------------------------------------
                        ORCA OPTIMIZATION COORDINATE SETUP
------------------------------------------------------------------------------

The optimization will be done in redundant internal coordinates (2022)
Making redundant internal coordinates   ...  (2022 redundants) done
Evaluating the initial hessian          ...  (Almloef) done
Evaluating the coordinates              ...  done
Calculating the B-matrix                .... done
Calculating the G-matrix                .... done
Diagonalizing the G-matrix              .... done
Small eigenvalue found = 5.189e-03
Small eigenvalue found = 1.845e-02
Small eigenvalue found = 2.339e-02
The first mode is                       ....   52
The number of degrees of freedom        ....   66

    -----------------------------------------------------------------
                    Redundant Internal Coordinates


    -----------------------------------------------------------------
         Definition                    Initial Value    Approx d2E/dq
    -----------------------------------------------------------------
      1. B(C   1,C   0)                  1.3955         0.612355   
      2. B(C   2,C   1)                  1.3984         0.605849   
      3. B(C   3,C   2)                  1.3954         0.612606   
      4. B(C   4,C   3)                  1.3962         0.610629   
      5. B(C   5,C   4)                  1.3898         0.625141   
      6. B(C   5,C   0)                  1.3954         0.612596   
      7. B(Cl  6,C   5)                  1.7181         0.419963   
      8. B(O   7,C   3)                  1.3671         0.608733   
      9. B(O   8,C   2)                  1.3788         0.583028   
     10. B(C   9,O   8)                  1.3840         0.572147   
     11. B(C  10,C   9)                  1.4009         0.600249   
     12. B(C  11,C  10)                  1.3994         0.603574   
     13. B(C  12,C  11)                  1.3910         0.622616   
     14. B(C  13,C  12)                  1.3934         0.617128   
     15. B(C  14,C   9)                  1.4031         0.595543   
     16. B(C  14,C  13)                  1.3966         0.609921   
     17. B(Cl 15,C  12)                  1.7204         0.416517   
     18. B(Cl 16,C  10)                  1.7268         0.406846   
     19. B(H  17,C   0)                  1.0866         0.364633   
     20. B(H  18,C   1)                  1.0856         0.366031   
     21. B(H  19,C   4)                  1.0877         0.363141   
     22. B(H  20,O   8)                  2.2511         0.004531   
     23. B(H  20,O   7)                  0.9753         0.491561   
     24. B(H  21,C  11)                  1.0873         0.363625   
     25. B(H  22,C  13)                  1.0882         0.362471   
     26. B(H  23,C  14)                  1.0882         0.362539   
     27. A(C   1,C   0,H  17)          119.6162         0.352915   
     28. A(C   1,C   0,C   5)          119.9682         0.432164   
     29. A(C   5,C   0,H  17)          120.4118         0.352938   
     30. A(C   0,C   1,H  18)          118.9740         0.353144   
     31. A(C   2,C   1,H  18)          120.9976         0.352506   
     32. A(C   0,C   1,C   2)          120.0073         0.431305   
     33. A(C   1,C   2,C   3)          119.1344         0.431337   
     34. A(C   1,C   2,O   8)          123.2546         0.424738   
     35. A(C   3,C   2,O   8)          117.6070         0.425582   
     36. A(C   2,C   3,C   4)          120.9279         0.431946   
     37. A(C   4,C   3,O   7)          117.4034         0.428636   
     38. A(C   2,C   3,O   7)          121.6678         0.428885   
     39. A(C   3,C   4,C   5)          119.2209         0.433522   
     40. A(C   5,C   4,H  19)          121.0675         0.353906   
     41. A(C   3,C   4,H  19)          119.7115         0.352502   
     42. A(C   0,C   5,Cl  6)          119.6487         0.422262   
     43. A(C   0,C   5,C   4)          120.4351         0.433773   
     44. A(C   4,C   5,Cl  6)          119.9152         0.423795   
     45. A(C   3,O   7,H  20)          107.1047         0.365416   
     46. A(C   2,O   8,C   9)          118.4377         0.417690   
     47. A(O   8,C   9,C  10)          118.3161         0.422608   
     48. A(C  10,C   9,C  14)          119.3218         0.428441   
     49. A(O   8,C   9,C  14)          122.3438         0.422014   
     50. A(C   9,C  10,C  11)          120.3239         0.429471   
     51. A(C  11,C  10,Cl 16)          118.3700         0.418768   
     52. A(C   9,C  10,Cl 16)          121.3041         0.418356   
     53. A(C  12,C  11,H  21)          120.2377         0.353744   
     54. A(C  10,C  11,H  21)          120.1142         0.351889   
     55. A(C  10,C  11,C  12)          119.6461         0.432302   
     56. A(C  13,C  12,Cl 15)          119.5757         0.422197   
     57. A(C  11,C  12,Cl 15)          119.8326         0.422865   
     58. A(C  11,C  12,C  13)          120.5911         0.434032   
     59. A(C  12,C  13,C  14)          119.8068         0.432427   
     60. A(C  14,C  13,H  22)          119.6764         0.352323   
     61. A(C  12,C  13,H  22)          120.5164         0.353024   
     62. A(C   9,C  14,C  13)          120.1619         0.429671   
     63. A(C  13,C  14,H  23)          118.8279         0.352334   
     64. A(C   9,C  14,H  23)          120.9938         0.350916   
     65. D(C   2,C   1,C   0,H  17)   -177.0031         0.025909   
     66. D(H  18,C   1,C   0,H  17)      1.3416         0.025909   
     67. D(C   2,C   1,C   0,C   5)      2.2818         0.025909   
     68. D(H  18,C   1,C   0,C   5)   -179.3735         0.025909   
     69. D(C   3,C   2,C   1,H  18)    175.5746         0.025331   
     70. D(O   8,C   2,C   1,H  18)     -3.6759         0.025331   
     71. D(O   8,C   2,C   1,C   0)    174.6347         0.025331   
     72. D(C   3,C   2,C   1,C   0)     -6.1148         0.025331   
     73. D(O   7,C   3,C   2,O   8)      4.9411         0.025932   
     74. D(O   7,C   3,C   2,C   1)   -174.3516         0.025932   
     75. D(C   4,C   3,C   2,O   8)   -174.7104         0.025932   
     76. D(C   4,C   3,C   2,C   1)      5.9969         0.025932   
     77. D(H  19,C   4,C   3,C   2)    177.8731         0.025755   
     78. D(C   5,C   4,C   3,O   7)    178.3616         0.025755   
     79. D(C   5,C   4,C   3,C   2)     -1.9726         0.025755   
     80. D(H  19,C   4,C   3,O   7)     -1.7928         0.025755   
     81. D(Cl  6,C   5,C   4,H  19)     -1.4413         0.027070   
     82. D(C   0,C   5,C   4,H  19)    178.1925         0.027070   
     83. D(C   0,C   5,C   4,C   3)     -1.9640         0.027070   
     84. D(Cl  6,C   5,C   0,H  17)      0.7193         0.025931   
     85. D(Cl  6,C   5,C   0,C   1)   -178.5598         0.025931   
     86. D(Cl  6,C   5,C   4,C   3)    178.4022         0.027070   
     87. D(C   4,C   5,C   0,H  17)   -178.9155         0.025931   
     88. D(C   4,C   5,C   0,C   1)      1.8053         0.025931   
     89. D(H  20,O   7,C   3,C   4)   -167.9419         0.027116   
     90. D(H  20,O   7,C   3,C   2)     12.3948         0.027116   
     91. D(C   9,O   8,C   2,C   3)    145.4603         0.027282   
     92. D(C   9,O   8,C   2,C   1)    -35.2785         0.027282   
     93. D(C  14,C   9,O   8,C   2)    -39.3694         0.026210   
     94. D(C  10,C   9,O   8,C   2)    142.2004         0.026210   
     95. D(C  11,C  10,C   9,O   8)   -178.1978         0.024839   
     96. D(Cl 16,C  10,C   9,C  14)   -177.1840         0.024839   
     97. D(Cl 16,C  10,C   9,O   8)      1.2949         0.024839   
     98. D(C  11,C  10,C   9,C  14)      3.3233         0.024839   
     99. D(H  21,C  11,C  10,Cl 16)     -0.1788         0.025130   
    100. D(H  21,C  11,C  10,C   9)    179.3286         0.025130   
    101. D(C  12,C  11,C  10,Cl 16)   -179.6682         0.025130   
    102. D(C  12,C  11,C  10,C   9)     -0.1608         0.025130   
    103. D(Cl 15,C  12,C  11,H  21)     -0.9707         0.026838   
    104. D(Cl 15,C  12,C  11,C  10)    178.5182         0.026838   
    105. D(C  13,C  12,C  11,H  21)    178.7584         0.026838   
    106. D(C  13,C  12,C  11,C  10)     -1.7528         0.026838   
    107. D(H  22,C  13,C  12,Cl 15)     -0.0147         0.026339   
    108. D(H  22,C  13,C  12,C  11)   -179.7444         0.026339   
    109. D(C  14,C  13,C  12,Cl 15)   -179.8112         0.026339   
    110. D(C  14,C  13,C  12,C  11)      0.4591         0.026339   
    111. D(H  23,C  14,C  13,H  22)      1.4971         0.025692   
    112. D(H  23,C  14,C  13,C  12)   -178.7046         0.025692   
    113. D(C   9,C  14,C  13,H  22)   -177.0456         0.025692   
    114. D(C   9,C  14,C  13,C  12)      2.7526         0.025692   
    115. D(H  23,C  14,C   9,C  10)    176.8704         0.024431   
    116. D(H  23,C  14,C   9,O   8)     -1.5445         0.024431   
    117. D(C  13,C  14,C   9,C  10)     -4.6189         0.024431   
    118. D(C  13,C  14,C   9,O   8)    176.9661         0.024431   
    -----------------------------------------------------------------

Number of atoms                         .... 24
Number of degrees of freedom            .... 118


         *************************************************************
         *                GEOMETRY OPTIMIZATION CYCLE   1            *
         *************************************************************
---------------------------------
CARTESIAN COORDINATES (ANGSTROEM)
---------------------------------
  C     -0.498380    1.456720    0.098960
  C      0.836360    1.861870    0.139870
  C      1.858500    0.909640    0.076920
  C      1.527050   -0.445530    0.103270
  C      0.193990   -0.859110    0.065880
  C     -0.813110    0.098450    0.043280
  Cl    -2.458040   -0.389950   -0.044300
  O      2.486230   -1.418040    0.159240
  O      3.195400    1.239150    0.004080
  C      3.558400    2.365550   -0.713420
  C      4.599240    3.161890   -0.218400
  C      4.975450    4.330570   -0.889960
  C      4.312220    4.697790   -2.056160
  C      3.302130    3.893950   -2.580580
  C      2.944190    2.713370   -1.925990
  Cl     4.745030    6.153320   -2.864750
  Cl     5.438900    2.741890    1.230850
  H     -1.286770    2.204470    0.098980
  H      1.062640    2.922230    0.193350
  H     -0.040810   -1.921090    0.052350
  H      3.329410   -0.977310    0.373690
  H      5.776510    4.951890   -0.496780
  H      2.786880    4.180330   -3.495300
  H      2.168020    2.086870   -2.360910

----------------------------
CARTESIAN COORDINATES (A.U.)
----------------------------
  NO LB      ZA    FRAG     MASS         X           Y           Z
   0 C     6.0000    0    12.011   -0.941802    2.752802    0.187007
   1 C     6.0000    0    12.011    1.580491    3.518424    0.264316
   2 C     6.0000    0    12.011    3.512056    1.718970    0.145358
   3 C     6.0000    0    12.011    2.885706   -0.841930    0.195152
   4 C     6.0000    0    12.011    0.366588   -1.623483    0.124495
   5 C     6.0000    0    12.011   -1.536555    0.186044    0.081787
   6 Cl   17.0000    0    35.453   -4.645022   -0.736899   -0.083715
   7 O     8.0000    0    15.999    4.698294   -2.679707    0.300920
   8 O     8.0000    0    15.999    6.038431    2.341654    0.007710
   9 C     6.0000    0    12.011    6.724401    4.470242   -1.348168
  10 C     6.0000    0    12.011    8.691304    5.975106   -0.412716
  11 C     6.0000    0    12.011    9.402238    8.183591   -1.681781
  12 C     6.0000    0    12.011    8.148915    8.877537   -3.885579
  13 C     6.0000    0    12.011    6.240121    7.358499   -4.876589
  14 C     6.0000    0    12.011    5.563713    5.127526   -3.639594
  15 Cl   17.0000    0    35.453    8.966807   11.628090   -5.413593
  16 Cl   17.0000    0    35.453   10.278031    5.181421    2.325969
  17 H     1.0000    0     1.008   -2.431643    4.165845    0.187045
  18 H     1.0000    0     1.008    2.008099    5.522214    0.365379
  19 H     1.0000    0     1.008   -0.077120   -3.630334    0.098927
  20 H     1.0000    0     1.008    6.291673   -1.846848    0.706172
  21 H     1.0000    0     1.008   10.916022    9.357716   -0.938778
  22 H     1.0000    0     1.008    5.266440    7.899679   -6.605160
  23 H     1.0000    0     1.008    4.096964    3.943613   -4.461473

--------------------------------
INTERNAL COORDINATES (ANGSTROEM)
--------------------------------
 C      0   0   0     0.000000000000     0.00000000     0.00000000
 C      1   0   0     1.395475194405     0.00000000     0.00000000
 C      2   1   0     1.398382942902   120.00730714     0.00000000
 C      3   2   1     1.395363448676   119.13439743   353.88521152
 C      4   3   2     1.396243314075   120.92787852     5.99690044
 C      5   4   3     1.389849748570   119.22087215   358.02744876
 Cl     6   5   4     1.718138388285   119.91522697   178.40217544
 O      4   3   2     1.367089833698   121.66780929   185.64837581
 O      3   2   1     1.378834332217   123.25460873   174.63471367
 C      9   3   2     1.383962503105   118.43773013   324.72150892
 C     10   9   3     1.400910454526   118.31610011   142.20041341
 C     11  10   9     1.399406924415   120.32394736   181.80216421
 C     12  11  10     1.390951832847   119.64607025   359.83916149
 C     13  12  11     1.393361722633   120.59113197   358.24719922
 C     14  13  12     1.396559432355   119.80682487     0.45907096
 Cl    13  12  11     1.720380732600   119.83263710   178.51818599
 Cl    11  10   9     1.726775746326   121.30414926     1.29488420
 H      1   2   3     1.086595074073   119.61615663   182.99686979
 H      2   1   3     1.085553351245   118.97395465   178.34468767
 H      5   4   3     1.087711184690   119.71147944   177.87310101
 H      8   4   3     0.975286751576   107.10469875    12.39482959
 H     12  11  10     1.087348232352   120.11423103   179.32864385
 H     14  13  12     1.088213556844   120.51644043   180.25560822
 H     15  14  13     1.088162453543   118.82789416   181.29536685

---------------------------
INTERNAL COORDINATES (A.U.)
---------------------------
 C      0   0   0     0.000000000000     0.00000000     0.00000000
 C      1   0   0     2.637065944106     0.00000000     0.00000000
 C      2   1   0     2.642560792432   120.00730714     0.00000000
 C      3   2   1     2.636854775281   119.13439743   353.88521152
 C      4   3   2     2.638517479921   120.92787852     5.99690044
 C      5   4   3     2.626435392097   119.22087215   358.02744876
 Cl     6   5   4     3.246811014036   119.91522697   178.40217544
 O      4   3   2     2.583425386157   121.66780929   185.64837581
 O      3   2   1     2.605619271938   123.25460873   174.63471367
 C      9   3   2     2.615310110484   118.43773013   324.72150892
 C     10   9   3     2.647337097201   118.31610011   142.20041341
 C     11  10   9     2.644495837057   120.32394736   181.80216421
 C     12  11  10     2.628518029556   119.64607025   359.83916149
 C     13  12  11     2.633072061266   120.59113197   358.24719922
 C     14  13  12     2.639114856896   119.80682487     0.45907096
 Cl    13  12  11     3.251048430688   119.83263710   178.51818599
 Cl    11  10   9     3.263133255254   121.30414926     1.29488420
 H      1   2   3     2.053367108466   119.61615663   182.99686979
 H      2   1   3     2.051398537614   118.97395465   178.34468767
 H      5   4   3     2.055476251867   119.71147944   177.87310101
 H      8   4   3     1.843024862521   107.10469875    12.39482959
 H     12  11  10     2.054790371350   120.11423103   179.32864385
 H     14  13  12     2.056425597656   120.51644043   180.25560822
 H     15  14  13     2.056329026411   118.82789416   181.29536685

---------------------
BASIS SET INFORMATION
---------------------
There are 4 groups of distinct atoms

 Group   1 Type C   : 12s6p1d contracted to 5s4p1d pattern {63111/3111/1}
 Group   2 Type Cl  : 14s11p1d contracted to 7s6p1d pattern {6311111/521111/1}
 Group   3 Type O   : 12s6p1d contracted to 5s4p1d pattern {63111/3111/1}
 Group   4 Type H   : 5s1p contracted to 3s1p pattern {311/1}

Atom   0C    basis set group =>   1
Atom   1C    basis set group =>   1
Atom   2C    basis set group =>   1
Atom   3C    basis set group =>   1
Atom   4C    basis set group =>   1
Atom   5C    basis set group =>   1
Atom   6Cl   basis set group =>   2
Atom   7O    basis set group =>   3
Atom   8O    basis set group =>   3
Atom   9C    basis set group =>   1
Atom  10C    basis set group =>   1
Atom  11C    basis set group =>   1
Atom  12C    basis set group =>   1
Atom  13C    basis set group =>   1
Atom  14C    basis set group =>   1
Atom  15Cl   basis set group =>   2
Atom  16Cl   basis set group =>   2
Atom  17H    basis set group =>   4
Atom  18H    basis set group =>   4
Atom  19H    basis set group =>   4
Atom  20H    basis set group =>   4
Atom  21H    basis set group =>   4
Atom  22H    basis set group =>   4
Atom  23H    basis set group =>   4
---------------------------------
AUXILIARY/J BASIS SET INFORMATION
---------------------------------
There are 4 groups of distinct atoms

 Group   1 Type C   : 12s5p4d2f1g contracted to 6s4p3d1f1g pattern {711111/2111/211/2/1}
 Group   2 Type Cl  : 14s5p5d2f1g contracted to 8s4p3d1f1g pattern {71111111/2111/311/2/1}
 Group   3 Type O   : 12s5p4d2f1g contracted to 6s4p3d1f1g pattern {711111/2111/211/2/1}
 Group   4 Type H   : 5s2p1d contracted to 3s1p1d pattern {311/2/1}

Atom   0C    basis set group =>   1
Atom   1C    basis set group =>   1
Atom   2C    basis set group =>   1
Atom   3C    basis set group =>   1
Atom   4C    basis set group =>   1
Atom   5C    basis set group =>   1
Atom   6Cl   basis set group =>   2
Atom   7O    basis set group =>   3
Atom   8O    basis set group =>   3
Atom   9C    basis set group =>   1
Atom  10C    basis set group =>   1
Atom  11C    basis set group =>   1
Atom  12C    basis set group =>   1
Atom  13C    basis set group =>   1
Atom  14C    basis set group =>   1
Atom  15Cl   basis set group =>   2
Atom  16Cl   basis set group =>   2
Atom  17H    basis set group =>   4
Atom  18H    basis set group =>   4
Atom  19H    basis set group =>   4
Atom  20H    basis set group =>   4
Atom  21H    basis set group =>   4
Atom  22H    basis set group =>   4
Atom  23H    basis set group =>   4
------------------------------------------------------------------------------
                             ORCA STARTUP CALCULATIONS
                           -- RI-GTO INTEGRALS CHOSEN --
------------------------------------------------------------------------------
------------------------------------------------------------------------------
                   ___                                                        
                  /   \      - P O W E R E D   B Y -                         
                 /     \                                                     
                 |  |  |   _    _      __       _____    __    __             
                 |  |  |  | |  | |    /  \     |  _  \  |  |  /  |          
                  \  \/   | |  | |   /    \    | | | |  |  | /  /          
                 / \  \   | |__| |  /  /\  \   | |_| |  |  |/  /          
                |  |  |   |  __  | /  /__\  \  |    /   |      \           
                |  |  |   | |  | | |   __   |  |    \   |  |\   \          
                \     /   | |  | | |  |  |  |  | |\  \  |  | \   \       
                 \___/    |_|  |_| |__|  |__|  |_| \__\ |__|  \__/        
                                                                              
                      - O R C A' S   B I G   F R I E N D -                    
                                      &                                       
                       - I N T E G R A L  F E E D E R -                       
                                                                              
 v1 FN, 2020, v2 2021, v3 2022-2024                                           
------------------------------------------------------------------------------


----------------------
SHARK INTEGRAL PACKAGE
----------------------

Number of atoms                             ...     24
Number of basis functions                   ...    440
Number of shells                            ...    210
Maximum angular momentum                    ...      2
Integral batch strategy                     ... SHARK/LIBINT Hybrid
RI-J (if used) integral strategy            ... SPLIT-RIJ (Revised 2003 algorithm where possible)
Printlevel                                  ...      1
Contraction scheme used                     ... SEGMENTED contraction
Prescreening option                         ... SCHWARTZ
   Thresh                                   ... 2.500e-11
   Tcut                                     ... 2.500e-12
   Tpresel                                  ... 2.500e-12 
Coulomb Range Separation                    ... NOT USED
Exchange Range Separation                   ... NOT USED
Multipole approximations                    ... NOT USED
Finite Nucleus Model                        ... NOT USED
CABS basis                                  ... NOT available
Auxiliary Coulomb fitting basis             ... AVAILABLE
   # of basis functions in Aux-J            ...    916
   # of shells in Aux-J                     ...    296
   Maximum angular momentum in Aux-J        ...      4
Auxiliary J/K fitting basis                 ... NOT available
Auxiliary Correlation fitting basis         ... NOT available
Auxiliary 'external' fitting basis          ... NOT available

Checking pre-screening integrals            ... done (  0.0 sec) Dimension = 210
Check shell pair data                       ... done (  0.0 sec)
Shell pair information
Shell pair cut-off parameter TPreSel        ...   2.5e-12
Total number of shell pairs                 ...     22155
Shell pairs after pre-screening             ...     17205
Total number of primitive shell pairs       ...     75093
Primitive shell pairs kept                  ...     39216
          la=0 lb=0:   4723 shell pairs
          la=1 lb=0:   7193 shell pairs
          la=1 lb=1:   2763 shell pairs
          la=2 lb=0:   1354 shell pairs
          la=2 lb=1:   1058 shell pairs
          la=2 lb=2:    114 shell pairs

Calculating one electron integrals          ... done (  0.0 sec)
Calculating RI/J V-Matrix + Cholesky decomp.... done (  0.0 sec)
Calculating Nuclear repulsion               ... done (  0.0 sec) ENN=   1433.084984797995 Eh

Diagonalization of the overlap matrix:
Smallest eigenvalue                        ... 8.833e-07
Time for diagonalization                   ...    0.010 sec
Threshold for overlap eigenvalues          ... 1.000e-07
Number of eigenvalues below threshold      ... 0

IMPORTANT:
Smallest eigenvalue of S below the DiffSThresh (1.000e-06) while
Thresh>1e-12 and/or TCut>1e-13! In order to avoid SCF convergence issues,
Thresh will be set to at least 1e-12 and TCut to at least 1e-13.
This can be turned off by adding %SCF DiffSThresh -1 END to the input.

Time for construction of square roots      ...    0.008 sec
Total time needed                          ...    0.020 sec

-------------------
DFT GRID GENERATION
-------------------

General Integration Accuracy     IntAcc      ... 4.388
Radial Grid Type                 RadialGrid  ... OptM3 with GC (2021)
Angular Grid (max. ang.)         AngularGrid ... 4 (Lebedev-302)
Angular grid pruning method      GridPruning ... 4 (adaptive)
Weight generation scheme         WeightScheme... mBecke (2022)
Basis function cutoff            BFCut       ... 1.0000e-11
Integration weight cutoff        WCut        ... 1.0000e-14
Partially contracted basis set               ... off
Rotationally invariant grid construction     ... off
Angular grids for H and He will be reduced by one unit
Diffuse basis detected: some atoms will have their outermost
                        angular grid increased by 1.

Total number of grid points                  ...   132665
Total number of batches                      ...     2086
Average number of points per batch           ...       63
Average number of grid points per atom       ...     5528
Initializing property integral containers    ... done (  0.0 sec)

SHARK setup successfully completed in   1.0 seconds

Maximum memory used throughout the entire STARTUP-calculation: 69.3 MB
-------------------------------------------------------------------------------
                                 ORCA GUESS
                   Start orbitals & Density for SCF / CASSCF
-------------------------------------------------------------------------------

------------
SCF SETTINGS
------------
Hamiltonian:
 Density Functional     Method          .... DFT(GTOs)
 Exchange Functional    Exchange        .... PBE
   PBE kappa parameter   XKappa         ....  0.804000
   PBE mue parameter    XMuePBE         ....  0.219520
 Correlation Functional Correlation     .... PBE
   PBE beta parameter  CBetaPBE         ....  0.066725
 LDA part of GGA corr.  LDAOpt          .... PW91-LDA
 Gradients option       PostSCFGGA      .... off
   NL short-range parameter             ....  6.400000
 RI-approximation to the Coulomb term is turned on
   Number of AuxJ basis functions       .... 916


General Settings:
 Integral files         IntName         .... Triclosan\Triclosan_PBE_6-311+G\Triclosan_PBE_6-311+G.orcainp
 Hartree-Fock type      HFTyp           .... RHF
 Total Charge           Charge          ....    0
 Multiplicity           Mult            ....    1
 Number of Electrons    NEL             ....  146
 Basis Dimension        Dim             ....  440
 Nuclear Repulsion      ENuc            ....   1433.0849847980 Eh

Convergence Acceleration:
 AO-DIIS                CNVDIIS         .... on
   Start iteration      DIISMaxIt       ....    12
   Startup error        DIISStart       ....  0.200000
   # of expansion vecs  DIISMaxEq       ....     5
   Bias factor          DIISBfac        ....   1.050
   Max. coefficient     DIISMaxC        ....  10.000
 MO-DIIS                CNVKDIIS        .... off
 Trust-Rad. Augm. Hess. CNVTRAH         .... auto
   Auto Start mean grad. ratio tolernc. ....  1.125000
   Auto Start start iteration           ....    50
   Auto Start num. interpolation iter.  ....    10
   Max. Number of Micro iterations      ....    24
   Max. Number of Macro iterations      .... Maxiter - #DIIS iter
   Number of Davidson start vectors     ....     2
   Converg. threshold    (grad. norm)   ....   1.000e-05
   Grad. Scal. Fac. for Micro threshold ....   0.100
   Minimum threshold for Micro iter.    ....   1.000e-02
   NR start threshold (gradient norm)   ....   1.000e-04
   Initial trust radius                 ....   0.400
   Minimum AH scaling param. (alpha)    ....   1.000
   Maximum AH scaling param. (alpha)    .... 1000.000
   Quad. conv. algorithm                .... NR
   White noise on init. David. guess    .... on
   Maximum white noise                  ....   0.010
   Pseudo random numbers                .... off
   Inactive MOs                         .... canonical
   Orbital update algorithm             .... Taylor
   Preconditioner                       .... Diag
   Full preconditioner red. dimension   ....   250
 SOSCF                  CNVSOSCF        .... on
   Start iteration      SOSCFMaxIt      ....   150
   Startup grad/error   SOSCFStart      ....  0.003300
   Hessian update       SOSCFHessUp     .... L-BFGS
 Level Shifting         CNVShift        .... on
   Level shift para.    LevelShift      ....    0.2500
   Turn off err/grad.   ShiftErr        ....    0.0010
 Zerner damping         CNVZerner       .... off
 Static damping         CNVDamp         .... on
   Fraction old density DampFac         ....    0.7000
   Max. Damping (<1)    DampMax         ....    0.9800
   Min. Damping (>=0)   DampMin         ....    0.0000
   Turn off err/grad.   DampErr         ....    0.1000

SCF Procedure:
 Maximum # iterations   MaxIter         ....   125
 SCF integral mode      SCFMode         .... Direct
   Integral package                     .... SHARK and LIBINT hybrid scheme
 Reset frequency        DirectResetFreq ....    20
 Integral Threshold     Thresh          ....  1.000e-12 Eh
 Primitive CutOff       TCut            ....  1.000e-13 Eh

Convergence Tolerance:
 Convergence Check Mode ConvCheckMode   .... Total+1el-Energy
 Convergence forced     ConvForced      .... 0
 Energy Change          TolE            ....  1.000e-08 Eh
 1-El. energy change                    ....  1.000e-05 Eh
 Orbital Gradient       TolG            ....  1.000e-05
 Orbital Rotation angle TolX            ....  1.000e-05
 DIIS Error             TolErr          ....  5.000e-07

------------------------------
INITIAL GUESS: MODEL POTENTIAL
------------------------------
Loading Hartree-Fock densities                     ... done
Calculating cut-offs                               ... done
Initializing the effective Hamiltonian             ... done
Setting up the integral package (SHARK)            ... done
Starting the Coulomb interaction                   ... done (   0.4 sec)
Making the grid                                    ... done (   0.3 sec)
Mapping shells                                     ... done
Starting the XC term evaluation                    ... done (   0.7 sec)
  promolecular density results
     # of electrons  =    145.990789678
     EX              =   -161.966559798
     EC              =     -5.226454167
     EX+EC           =   -167.193013965
Transforming the Hamiltonian                       ... done (   0.0 sec)
Diagonalizing the Hamiltonian                      ... done (   0.0 sec)
Back transforming the eigenvectors                 ... done (   0.0 sec)
Now organizing SCF variables                       ... done
                      ------------------
                      INITIAL GUESS DONE (   1.4 sec)
                      ------------------
             **** ENERGY FILE WAS UPDATED (Triclosan\Triclosan_PBE_6-311+G\Triclosan_PBE_6-311+G.orcainp.en.tmp) ****
Finished Guess after   1.5 sec
Maximum memory used throughout the entire GUESS-calculation: 44.2 MB

-------------------------------------------------------------------------------------------
                                      ORCA LEAN-SCF
                              memory conserving SCF solver
-------------------------------------------------------------------------------------------

--------------------
CPCM SOLVATION MODEL
--------------------
CPCM parameters:
  Epsilon                                         ...      80.1510
  Refrac                                          ...       1.3328
  Rsolv                                           ...       1.3000
  Surface type                                    ... GAUSSIAN VDW
  Discretization scheme                           ... Constant charge density
    Threshold for H atoms                         ...       5.0000 (charges/Ang^2)
    Threshold for non-H atoms                     ...       5.0000 (charges/Ang^2)
  Epsilon function type                           ...         CPCM
Solvent:                                          ... WATER
Radii:
  Scheme                                          ... Element-dependent radii
  Radius for C  used is    3.8550 Bohr (=   2.0400 Ang.)
  Radius for Cl used is    3.9684 Bohr (=   2.1000 Ang.)
  Radius for O  used is    3.4469 Bohr (=   1.8240 Ang.)
  Radius for H  used is    2.4944 Bohr (=   1.3200 Ang.)
Calculating surface                               ...        done! (  0.0s)
Cavity surface points                             ...         2518
Cavity Volume                                     ...    1981.6541
Cavity Surface-area                               ...    1034.6095
Calculating surface distance matrix               ...        done! (  0.0s)
Performing Cholesky decomposition & store         ...        done! (  0.1s)
Overall time for CPCM initialization              ...                 0.1s

----------------------------------------D-I-I-S--------------------------------------------
Iteration    Energy (Eh)           Delta-E    RMSDP     MaxDP     DIISErr   Damp  Time(sec)
-------------------------------------------------------------------------------------------
               ***  Starting incremental Fock matrix formation  ***
    1    -1991.2021432894141526     0.00e+00  1.35e-02  1.23e+00  2.23e-01  0.700   4.4
    2    -1991.3200769261804908    -1.18e-01  9.98e-03  8.03e-01  7.68e-02  0.700   4.1
                               ***Turning on AO-DIIS***
    3    -1991.3613714203308973    -4.13e-02  4.57e-03  4.36e-01  2.07e-02  0.700   4.0
    4    -1991.3860601108310675    -2.47e-02  8.26e-03  8.18e-01  1.05e-02  0.000   3.9
    5    -1991.4417277703644231    -5.57e-02  3.57e-03  4.17e-01  1.08e-02  0.000   4.0
                              *** Initializing SOSCF ***
---------------------------------------S-O-S-C-F--------------------------------------
Iteration    Energy (Eh)           Delta-E    RMSDP     MaxDP     MaxGrad    Time(sec)
--------------------------------------------------------------------------------------
    6    -1991.4423340353953336    -6.06e-04  1.17e-03  1.56e-01  2.70e-03     3.8
               *** Restarting incremental Fock matrix formation ***
    7    -1991.4424134029293327    -7.94e-05  1.30e-03  1.93e-01  2.90e-04     4.3
    8    -1991.4424103141730029     3.09e-06  2.14e-04  1.87e-02  3.75e-04     3.6
    9    -1991.4424207244253466    -1.04e-05  3.95e-04  5.17e-02  1.58e-04     3.5
   10    -1991.4424201963363430     5.28e-07  1.02e-04  1.01e-02  1.26e-04     3.5
   11    -1991.4424218312776702    -1.63e-06  1.40e-04  2.17e-02  3.50e-05     3.4
   12    -1991.4424217643793327     6.69e-08  5.72e-05  4.92e-03  4.53e-05     3.3
   13    -1991.4424219784930301    -2.14e-07  6.95e-05  9.44e-03  9.41e-06     3.2
   14    -1991.4424219860991343    -7.61e-09  4.18e-05  4.24e-03  1.07e-05     3.1
                 **** Energy Check signals convergence ****

               *****************************************************
               *                     SUCCESS                       *
               *           SCF CONVERGED AFTER  14 CYCLES          *
               *****************************************************

             **** ENERGY FILE WAS UPDATED (Triclosan\Triclosan_PBE_6-311+G\Triclosan_PBE_6-311+G.orcainp.en.tmp) ****

----------------
TOTAL SCF ENERGY
----------------

Total Energy       :      -1991.44242198609913 Eh          -54189.90326 eV

Components:
Nuclear Repulsion  :       1433.08498479799505 Eh           38996.22497 eV
Electronic Energy  :      -3424.51482313846645 Eh          -93185.78581 eV
One Electron Energy:      -5586.08925737035861 Eh         -152005.21649 eV
Two Electron Energy:       2161.57443423189216 Eh           58819.43068 eV
CPCM Dielectric    :         -0.01258364562792 Eh              -0.34242 eV

Virial components:
Potential Energy   :      -3978.02625495620714 Eh         -108247.59760 eV
Kinetic Energy     :       1986.58383297010801 Eh           54057.69434 eV
Virial Ratio       :          2.00244570047101

DFT components:
N(Alpha)           :       73.000052939666 electrons
N(Beta)            :       73.000052939666 electrons
N(Total)           :      146.000105879333 electrons
E(X)               :     -163.197241334000 Eh       
E(C)               :       -5.214801771172 Eh       
E(XC)              :     -168.412043105173 Eh       

CPCM Solvation Model Properties:
Surface-charge          :         -0.03267692711438
Corrected charge        :         -0.00000000000000
Outlying charge corr.   :          0.00005969051477 Eh               0.00162 eV
Free-energy (cav+disp)  :  This term is not implemented in the current solvation scheme

---------------
SCF CONVERGENCE
---------------

  Last Energy change         ...    7.6061e-09  Tolerance :   1.0000e-08
  Last MAX-Density change    ...    4.2368e-03  Tolerance :   1.0000e-07
  Last RMS-Density change    ...    4.1795e-05  Tolerance :   5.0000e-09
  Last DIIS Error            ...    2.7037e-03  Tolerance :   5.0000e-07
  Last Orbital Gradient      ...    1.0704e-05  Tolerance :   1.0000e-05
  Last Orbital Rotation      ...    2.4666e-05  Tolerance :   1.0000e-05


----------------
ORBITAL ENERGIES
----------------

  NO   OCC          E(Eh)            E(eV) 
   0   2.0000    -100.710658     -2740.4763 
   1   2.0000    -100.706434     -2740.3614 
   2   2.0000    -100.703011     -2740.2683 
   3   2.0000     -18.817366      -512.0466 
   4   2.0000     -18.790386      -511.3124 
   5   2.0000      -9.974379      -271.4167 
   6   2.0000      -9.964829      -271.1568 
   7   2.0000      -9.961461      -271.0651 
   8   2.0000      -9.960150      -271.0295 
   9   2.0000      -9.958008      -270.9712 
  10   2.0000      -9.951256      -270.7874 
  11   2.0000      -9.913644      -269.7640 
  12   2.0000      -9.911067      -269.6938 
  13   2.0000      -9.908332      -269.6194 
  14   2.0000      -9.903208      -269.4800 
  15   2.0000      -9.900013      -269.3931 
  16   2.0000      -9.897492      -269.3244 
  17   2.0000      -9.204064      -250.4553 
  18   2.0000      -9.200179      -250.3496 
  19   2.0000      -9.196864      -250.2594 
  20   2.0000      -7.031008      -191.3235 
  21   2.0000      -7.026875      -191.2110 
  22   2.0000      -7.023450      -191.1178 
  23   2.0000      -7.019795      -191.0183 
  24   2.0000      -7.019050      -190.9981 
  25   2.0000      -7.015912      -190.9127 
  26   2.0000      -7.015331      -190.8969 
  27   2.0000      -7.012624      -190.8232 
  28   2.0000      -7.012068      -190.8081 
  29   2.0000      -1.025470       -27.9045 
  30   2.0000      -0.987036       -26.8586 
  31   2.0000      -0.845048       -22.9949 
  32   2.0000      -0.829763       -22.5790 
  33   2.0000      -0.818370       -22.2690 
  34   2.0000      -0.777524       -21.1575 
  35   2.0000      -0.767133       -20.8747 
  36   2.0000      -0.702291       -19.1103 
  37   2.0000      -0.695787       -18.9333 
  38   2.0000      -0.690899       -18.8003 
  39   2.0000      -0.657848       -17.9009 
  40   2.0000      -0.597151       -16.2493 
  41   2.0000      -0.581357       -15.8195 
  42   2.0000      -0.569962       -15.5095 
  43   2.0000      -0.550819       -14.9886 
  44   2.0000      -0.523466       -14.2442 
  45   2.0000      -0.494831       -13.4650 
  46   2.0000      -0.468753       -12.7554 
  47   2.0000      -0.465210       -12.6590 
  48   2.0000      -0.455838       -12.4040 
  49   2.0000      -0.434919       -11.8347 
  50   2.0000      -0.421806       -11.4779 
  51   2.0000      -0.409505       -11.1432 
  52   2.0000      -0.404928       -11.0186 
  53   2.0000      -0.401847       -10.9348 
  54   2.0000      -0.395361       -10.7583 
  55   2.0000      -0.381202       -10.3730 
  56   2.0000      -0.368905       -10.0384 
  57   2.0000      -0.365894        -9.9565 
  58   2.0000      -0.360210        -9.8018 
  59   2.0000      -0.351901        -9.5757 
  60   2.0000      -0.343531        -9.3480 
  61   2.0000      -0.334033        -9.0895 
  62   2.0000      -0.328549        -8.9403 
  63   2.0000      -0.321794        -8.7565 
  64   2.0000      -0.298316        -8.1176 
  65   2.0000      -0.292346        -7.9552 
  66   2.0000      -0.284919        -7.7530 
  67   2.0000      -0.284217        -7.7339 
  68   2.0000      -0.280910        -7.6439 
  69   2.0000      -0.244101        -6.6423 
  70   2.0000      -0.233494        -6.3537 
  71   2.0000      -0.222584        -6.0568 
  72   2.0000      -0.201079        -5.4716 
  73   0.0000      -0.072473        -1.9721 
  74   0.0000      -0.063947        -1.7401 
  75   0.0000      -0.050618        -1.3774 
  76   0.0000      -0.040971        -1.1149 
  77   0.0000      -0.033035        -0.8989 
  78   0.0000      -0.017144        -0.4665 
  79   0.0000      -0.012409        -0.3377 
  80   0.0000      -0.002210        -0.0601 
  81   0.0000       0.001218         0.0332 
  82   0.0000       0.004841         0.1317 
  83   0.0000       0.016640         0.4528 
*Only the first 10 virtual orbitals were printed.

                    ********************************
                    * MULLIKEN POPULATION ANALYSIS *
                    ********************************

-----------------------
MULLIKEN ATOMIC CHARGES
-----------------------
   0 C :   -0.695226
   1 C :    0.152670
   2 C :   -0.193347
   3 C :   -1.069948
   4 C :   -0.026737
   5 C :    0.756862
   6 Cl:    0.429650
   7 O :   -0.249344
   8 O :    0.053123
   9 C :   -1.867134
  10 C :    1.224053
  11 C :   -0.908665
  12 C :    1.011842
  13 C :   -0.580030
  14 C :   -0.366026
  15 Cl:    0.439852
  16 Cl:    0.404240
  17 H :    0.183620
  18 H :    0.196364
  19 H :    0.183624
  20 H :    0.308529
  21 H :    0.210714
  22 H :    0.193208
  23 H :    0.208106
Sum of atomic charges:   -0.0000000

--------------------------------
MULLIKEN REDUCED ORBITAL CHARGES
--------------------------------
  0 C s       :     3.628817  s :     3.628817
      pz      :     1.039712  p :     3.012640
      px      :     1.145585
      py      :     0.827343
      dz2     :     0.003848  d :     0.053768
      dxz     :     0.007211
      dyz     :     0.007676
      dx2y2   :     0.015431
      dxy     :     0.019603

  1 C s       :     2.754953  s :     2.754953
      pz      :     0.987144  p :     3.039018
      px      :     0.909681
      py      :     1.142193
      dz2     :     0.003945  d :     0.053358
      dxz     :     0.011833
      dyz     :     0.004361
      dx2y2   :     0.015623
      dxy     :     0.017596

  2 C s       :     2.775175  s :     2.775175
      pz      :     1.035242  p :     3.307994
      px      :     0.860614
      py      :     1.412138
      dz2     :     0.006971  d :     0.110178
      dxz     :     0.021931
      dyz     :     0.011848
      dx2y2   :     0.038265
      dxy     :     0.031164

  3 C s       :     3.967935  s :     3.967935
      pz      :     1.060485  p :     2.985858
      px      :     0.797318
      py      :     1.128054
      dz2     :     0.006787  d :     0.116155
      dxz     :     0.020221
      dyz     :     0.019377
      dx2y2   :     0.035156
      dxy     :     0.034615

  4 C s       :     2.982195  s :     2.982195
      pz      :     1.027127  p :     2.994522
      px      :     1.018623
      py      :     0.948772
      dz2     :     0.003977  d :     0.050021
      dxz     :     0.010599
      dyz     :     0.004362
      dx2y2   :     0.017285
      dxy     :     0.013798

  5 C s       :     2.991262  s :     2.991262
      pz      :     1.046124  p :     2.165863
      px      :     0.874043
      py      :     0.245696
      dz2     :     0.004989  d :     0.086013
      dxz     :     0.013517
      dyz     :     0.013268
      dx2y2   :     0.028066
      dxy     :     0.026173

  6 Cls       :     5.551232  s :     5.551232
      pz      :     3.914148  p :    10.987348
      px      :     3.148510
      py      :     3.924690
      dz2     :     0.004363  d :     0.031770
      dxz     :     0.008187
      dyz     :     0.000850
      dx2y2   :     0.010779
      dxy     :     0.007592

  7 O s       :     3.798861  s :     3.798861
      pz      :     1.759467  p :     4.437810
      px      :     1.226726
      py      :     1.451616
      dz2     :     0.001764  d :     0.012674
      dxz     :     0.001070
      dyz     :     0.001975
      dx2y2   :     0.002175
      dxy     :     0.005690

  8 O s       :     3.660298  s :     3.660298
      pz      :     1.602930  p :     4.271817
      px      :     1.273467
      py      :     1.395420
      dz2     :     0.002110  d :     0.014763
      dxz     :     0.002567
      dyz     :     0.002743
      dx2y2   :     0.004977
      dxy     :     0.002365

  9 C s       :     3.743677  s :     3.743677
      pz      :     1.625629  p :     4.012523
      px      :     1.388909
      py      :     0.997986
      dz2     :     0.024141  d :     0.110934
      dxz     :     0.017269
      dyz     :     0.028733
      dx2y2   :     0.022607
      dxy     :     0.018184

 10 C s       :     2.108870  s :     2.108870
      pz      :     1.036042  p :     2.586122
      px      :     1.292439
      py      :     0.257641
      dz2     :     0.018519  d :     0.080955
      dxz     :     0.015703
      dyz     :     0.017139
      dx2y2   :     0.015094
      dxy     :     0.014500

 11 C s       :     4.070146  s :     4.070146
      pz      :     0.913972  p :     2.786402
      px      :     0.964569
      py      :     0.907861
      dz2     :     0.011993  d :     0.052117
      dxz     :     0.009800
      dyz     :     0.011858
      dx2y2   :     0.008119
      dxy     :     0.010346

 12 C s       :     2.790488  s :     2.790488
      pz      :     0.580377  p :     2.112563
      px      :     0.591757
      py      :     0.940430
      dz2     :     0.017424  d :     0.085107
      dxz     :     0.014463
      dyz     :     0.019742
      dx2y2   :     0.018149
      dxy     :     0.015329

 13 C s       :     3.571589  s :     3.571589
      pz      :     1.039489  p :     2.954529
      px      :     0.898180
      py      :     1.016861
      dz2     :     0.009978  d :     0.053912
      dxz     :     0.008882
      dyz     :     0.011480
      dx2y2   :     0.011753
      dxy     :     0.011819

 14 C s       :     3.230433  s :     3.230433
      pz      :     1.138036  p :     3.083541
      px      :     1.061828
      py      :     0.883677
      dz2     :     0.013593  d :     0.052052
      dxz     :     0.009282
      dyz     :     0.011373
      dx2y2   :     0.006717
      dxy     :     0.011088

 15 Cls       :     5.551787  s :     5.551787
      pz      :     3.768898  p :    10.976843
      px      :     3.899591
      py      :     3.308354
      dz2     :     0.003896  d :     0.031518
      dxz     :     0.002751
      dyz     :     0.010050
      dx2y2   :     0.008704
      dxy     :     0.006117

 16 Cls       :     5.567196  s :     5.567196
      pz      :     3.312435  p :    10.997201
      px      :     3.762094
      py      :     3.922672
      dz2     :     0.010741  d :     0.031363
      dxz     :     0.010535
      dyz     :     0.005368
      dx2y2   :     0.001889
      dxy     :     0.002831

 17 H s       :     0.790806  s :     0.790806
      pz      :     0.006494  p :     0.025574
      px      :     0.009826
      py      :     0.009254

 18 H s       :     0.777909  s :     0.777909
      pz      :     0.006191  p :     0.025727
      px      :     0.005048
      py      :     0.014488

 19 H s       :     0.790523  s :     0.790523
      pz      :     0.006386  p :     0.025852
      px      :     0.004981
      py      :     0.014484

 20 H s       :     0.625716  s :     0.625716
      pz      :     0.019835  p :     0.065755
      px      :     0.027922
      py      :     0.017997

 21 H s       :     0.763379  s :     0.763379
      pz      :     0.006404  p :     0.025907
      px      :     0.011076
      py      :     0.008427

 22 H s       :     0.781436  s :     0.781436
      pz      :     0.012338  p :     0.025356
      px      :     0.007495
      py      :     0.005524

 23 H s       :     0.766293  s :     0.766293
      pz      :     0.006351  p :     0.025601
      px      :     0.010858
      py      :     0.008392



                     *******************************
                     * LOEWDIN POPULATION ANALYSIS *
                     *******************************

----------------------
LOEWDIN ATOMIC CHARGES
----------------------
   0 C :   -0.102361
   1 C :   -0.043675
   2 C :   -0.065264
   3 C :   -0.026603
   4 C :   -0.085408
   5 C :   -0.277354
   6 Cl:    0.240333
   7 O :   -0.069962
   8 O :   -0.101465
   9 C :   -0.066930
  10 C :   -0.248035
  11 C :   -0.101426
  12 C :   -0.274697
  13 C :   -0.076282
  14 C :   -0.035734
  15 Cl:    0.248133
  16 Cl:    0.279860
  17 H :    0.098860
  18 H :    0.113861
  19 H :    0.112329
  20 H :    0.148432
  21 H :    0.112023
  22 H :    0.103448
  23 H :    0.117920

-------------------------------
LOEWDIN REDUCED ORBITAL CHARGES
-------------------------------
  0 C s       :     2.790754  s :     2.790754
      pz      :     1.002590  p :     3.181078
      px      :     1.096301
      py      :     1.082187
      dz2     :     0.009172  d :     0.130529
      dxz     :     0.014106
      dyz     :     0.015663
      dx2y2   :     0.043259
      dxy     :     0.048329

  1 C s       :     2.779279  s :     2.779279
      pz      :     0.980838  p :     3.136199
      px      :     1.092802
      py      :     1.062558
      dz2     :     0.008889  d :     0.128198
      dxz     :     0.024581
      dyz     :     0.007552
      dx2y2   :     0.041263
      dxy     :     0.045913

  2 C s       :     2.744375  s :     2.744375
      pz      :     1.034963  p :     3.070807
      px      :     0.927876
      py      :     1.107968
      dz2     :     0.019256  d :     0.250082
      dxz     :     0.042639
      dyz     :     0.022747
      dx2y2   :     0.092082
      dxy     :     0.073359

  3 C s       :     2.751001  s :     2.751001
      pz      :     0.970840  p :     3.020810
      px      :     1.024720
      py      :     1.025250
      dz2     :     0.018162  d :     0.254792
      dxz     :     0.037684
      dyz     :     0.037856
      dx2y2   :     0.077495
      dxy     :     0.083595

  4 C s       :     2.783071  s :     2.783071
      pz      :     1.015588  p :     3.178330
      px      :     1.088837
      py      :     1.073905
      dz2     :     0.009551  d :     0.124008
      dxz     :     0.021962
      dyz     :     0.007413
      dx2y2   :     0.043898
      dxy     :     0.041184

  5 C s       :     2.834402  s :     2.834402
      pz      :     1.040023  p :     3.243949
      px      :     1.036276
      py      :     1.167649
      dz2     :     0.013481  d :     0.199003
      dxz     :     0.026011
      dyz     :     0.026197
      dx2y2   :     0.068338
      dxy     :     0.064977

  6 Cls       :     5.637331  s :     5.637331
      pz      :     3.893721  p :    11.087042
      px      :     3.328010
      py      :     3.865311
      dz2     :     0.004877  d :     0.035295
      dxz     :     0.008671
      dyz     :     0.000892
      dx2y2   :     0.012206
      dxy     :     0.008649

  7 O s       :     3.397417  s :     3.397417
      pz      :     1.760097  p :     4.653562
      px      :     1.312846
      py      :     1.580619
      dz2     :     0.002638  d :     0.018983
      dxz     :     0.001758
      dyz     :     0.002068
      dx2y2   :     0.003478
      dxy     :     0.009042

  8 O s       :     3.379152  s :     3.379152
      pz      :     1.686470  p :     4.696822
      px      :     1.463295
      py      :     1.547057
      dz2     :     0.003281  d :     0.025491
      dxz     :     0.004116
      dyz     :     0.004571
      dx2y2   :     0.008860
      dxy     :     0.004663

  9 C s       :     2.755212  s :     2.755212
      pz      :     1.056666  p :     3.061779
      px      :     1.071061
      py      :     0.934052
      dz2     :     0.052305  d :     0.249939
      dxz     :     0.039230
      dyz     :     0.067100
      dx2y2   :     0.050062
      dxy     :     0.041242

 10 C s       :     2.827998  s :     2.827998
      pz      :     1.034428  p :     3.230350
      px      :     1.083372
      py      :     1.112550
      dz2     :     0.040738  d :     0.189687
      dxz     :     0.039077
      dyz     :     0.041853
      dx2y2   :     0.034179
      dxy     :     0.033840

 11 C s       :     2.793065  s :     2.793065
      pz      :     1.077656  p :     3.179020
      px      :     1.037017
      py      :     1.064347
      dz2     :     0.029159  d :     0.129341
      dxz     :     0.024970
      dyz     :     0.032076
      dx2y2   :     0.019494
      dxy     :     0.023641

 12 C s       :     2.835256  s :     2.835256
      pz      :     1.102658  p :     3.242200
      px      :     1.103151
      py      :     1.036392
      dz2     :     0.039350  d :     0.197241
      dxz     :     0.033952
      dyz     :     0.047293
      dx2y2   :     0.039412
      dxy     :     0.037234

 13 C s       :     2.793684  s :     2.793684
      pz      :     1.045665  p :     3.152070
      px      :     1.031551
      py      :     1.074854
      dz2     :     0.022166  d :     0.130529
      dxz     :     0.020532
      dyz     :     0.028843
      dx2y2   :     0.028227
      dxy     :     0.030760

 14 C s       :     2.782108  s :     2.782108
      pz      :     1.045600  p :     3.128321
      px      :     1.023560
      py      :     1.059161
      dz2     :     0.032243  d :     0.125306
      dxz     :     0.022861
      dyz     :     0.029927
      dx2y2   :     0.016573
      dxy     :     0.023703

 15 Cls       :     5.638958  s :     5.638958
      pz      :     3.764869  p :    11.077904
      px      :     3.864969
      py      :     3.448066
      dz2     :     0.004277  d :     0.035006
      dxz     :     0.002985
      dyz     :     0.011323
      dx2y2   :     0.009649
      dxy     :     0.006772

 16 Cls       :     5.635498  s :     5.635498
      pz      :     3.447991  p :    11.049813
      px      :     3.734886
      py      :     3.866935
      dz2     :     0.011864  d :     0.034829
      dxz     :     0.011883
      dyz     :     0.005932
      dx2y2   :     0.002066
      dxy     :     0.003085

 17 H s       :     0.828701  s :     0.828701
      pz      :     0.015880  p :     0.072439
      px      :     0.029012
      py      :     0.027547

 18 H s       :     0.812939  s :     0.812939
      pz      :     0.015047  p :     0.073200
      px      :     0.013488
      py      :     0.044664

 19 H s       :     0.815119  s :     0.815119
      pz      :     0.015797  p :     0.072552
      px      :     0.012367
      py      :     0.044388

 20 H s       :     0.666214  s :     0.666214
      pz      :     0.049388  p :     0.185354
      px      :     0.082636
      py      :     0.053330

 21 H s       :     0.815599  s :     0.815599
      pz      :     0.016655  p :     0.072378
      px      :     0.032229
      py      :     0.023494

 22 H s       :     0.824767  s :     0.824767
      pz      :     0.036875  p :     0.071784
      px      :     0.020685
      py      :     0.014224

 23 H s       :     0.809134  s :     0.809134
      pz      :     0.017674  p :     0.072946
      px      :     0.031163
      py      :     0.024109



                      *****************************
                      * MAYER POPULATION ANALYSIS *
                      *****************************

  NA   - Mulliken gross atomic population
  ZA   - Total nuclear charge
  QA   - Mulliken gross atomic charge
  VA   - Mayer's total valence
  BVA  - Mayer's bonded valence
  FA   - Mayer's free valence

  ATOM       NA         ZA         QA         VA         BVA        FA
  0 C      6.6952     6.0000    -0.6952     4.3027     4.3027     0.0000
  1 C      5.8473     6.0000     0.1527     4.1692     4.1692    -0.0000
  2 C      6.1933     6.0000    -0.1933     4.1190     4.1190     0.0000
  3 C      7.0699     6.0000    -1.0699     4.2171     4.2171    -0.0000
  4 C      6.0267     6.0000    -0.0267     3.6922     3.6922     0.0000
  5 C      5.2431     6.0000     0.7569     2.0692     2.0692    -0.0000
  6 Cl    16.5703    17.0000     0.4297     0.7891     0.7891     0.0000
  7 O      8.2493     8.0000    -0.2493     1.9913     1.9913     0.0000
  8 O      7.9469     8.0000     0.0531     1.6688     1.6688    -0.0000
  9 C      7.8671     6.0000    -1.8671     5.8753     5.8753    -0.0000
 10 C      4.7759     6.0000     1.2241     2.9586     2.9586     0.0000
 11 C      6.9087     6.0000    -0.9087     4.8007     4.8007    -0.0000
 12 C      4.9882     6.0000     1.0118     1.4482     1.4482    -0.0000
 13 C      6.5800     6.0000    -0.5800     4.2281     4.2281    -0.0000
 14 C      6.3660     6.0000    -0.3660     4.6779     4.6779     0.0000
 15 Cl    16.5601    17.0000     0.4399     0.8275     0.8275    -0.0000
 16 Cl    16.5958    17.0000     0.4042     1.1771     1.1771     0.0000
 17 H      0.8164     1.0000     0.1836     0.9457     0.9457     0.0000
 18 H      0.8036     1.0000     0.1964     0.9552     0.9552    -0.0000
 19 H      0.8164     1.0000     0.1836     0.9532     0.9532    -0.0000
 20 H      0.6915     1.0000     0.3085     0.9455     0.9455    -0.0000
 21 H      0.7893     1.0000     0.2107     0.9257     0.9257    -0.0000
 22 H      0.8068     1.0000     0.1932     0.9414     0.9414     0.0000
 23 H      0.7919     1.0000     0.2081     0.9438     0.9438     0.0000

  Mayer bond orders larger than 0.100000
B(  0-C ,  1-C ) :   1.3048 B(  0-C ,  2-C ) :   0.1547 B(  0-C ,  4-C ) :   0.3798 
B(  0-C ,  5-C ) :   1.0844 B(  0-C ,  6-Cl) :   0.6165 B(  0-C , 11-C ) :  -0.1828 
B(  0-C , 13-C ) :   0.3203 B(  0-C , 17-H ) :   0.9490 B(  0-C , 18-H ) :  -0.1220 
B(  1-C ,  2-C ) :   1.1029 B(  1-C ,  3-C ) :   0.7658 B(  1-C ,  6-Cl) :   0.1674 
B(  1-C ,  9-C ) :  -0.1028 B(  1-C , 10-C ) :   0.1831 B(  1-C , 13-C ) :  -0.2121 
B(  1-C , 18-H ) :   0.9259 B(  2-C ,  3-C ) :   1.2551 B(  2-C ,  4-C ) :  -0.2918 
B(  2-C ,  5-C ) :   0.1179 B(  2-C ,  7-O ) :  -0.5649 B(  2-C ,  8-O ) :   1.8391 
B(  2-C ,  9-C ) :   0.3985 B(  2-C , 13-C ) :   0.1416 B(  2-C , 18-H ) :   0.1215 
B(  2-C , 20-H ) :  -0.1872 B(  3-C ,  4-C ) :   0.8083 B(  3-C ,  5-C ) :  -0.1416 
B(  3-C ,  6-Cl) :   0.1643 B(  3-C ,  7-O ) :   1.9805 B(  3-C ,  8-O ) :  -0.8756 
B(  3-C ,  9-C ) :   0.1882 B(  3-C , 10-C ) :  -0.3027 B(  3-C , 13-C ) :  -0.1036 
B(  3-C , 14-C ) :   0.1109 B(  3-C , 20-H ) :   0.2308 B(  4-C ,  5-C ) :   1.7362 
B(  4-C ,  6-Cl) :   0.5802 B(  4-C ,  7-O ) :  -0.3646 B(  4-C ,  8-O ) :  -0.1439 
B(  4-C ,  9-C ) :  -0.2446 B(  4-C , 10-C ) :   0.1277 B(  4-C , 11-C ) :   0.1495 
B(  4-C , 19-H ) :   0.8655 B(  5-C ,  6-Cl) :  -0.7638 B(  5-C , 13-C ) :  -0.1030 
B(  7-O , 20-H ) :   0.8587 B(  8-O ,  9-C ) :   1.7738 B(  8-O , 10-C ) :  -0.6876 
B(  8-O , 14-C ) :  -0.1958 B(  9-C , 10-C ) :   1.5994 B(  9-C , 11-C ) :  -0.3508 
B(  9-C , 12-C ) :  -0.4056 B(  9-C , 13-C ) :  -0.2167 B(  9-C , 14-C ) :   1.5621 
B(  9-C , 16-Cl) :   1.2951 B(  9-C , 21-H ) :   0.1275 B( 10-C , 11-C ) :   1.8259 
B( 10-C , 12-C ) :   0.1900 B( 10-C , 13-C ) :   0.1869 B( 10-C , 14-C ) :   0.8374 
B( 10-C , 15-Cl) :   0.1857 B( 10-C , 16-Cl) :  -1.2149 B( 11-C , 12-C ) :   1.1909 
B( 11-C , 13-C ) :   0.3069 B( 11-C , 14-C ) :  -0.3245 B( 11-C , 15-Cl) :   0.6338 
B( 11-C , 16-Cl) :   0.6793 B( 11-C , 21-H ) :   0.9323 B( 12-C , 13-C ) :   1.2337 
B( 12-C , 15-Cl) :  -0.7957 B( 12-C , 16-Cl) :   0.1369 B( 13-C , 14-C ) :   1.3665 
B( 13-C , 15-Cl) :   0.6147 B( 13-C , 22-H ) :   0.9437 B( 13-C , 23-H ) :  -0.1132 
B( 14-C , 15-Cl) :   0.1583 B( 14-C , 16-Cl) :   0.2903 B( 14-C , 23-H ) :   0.9828 


-------
TIMINGS
-------

Total SCF time: 0 days 0 hours 0 min 52 sec 

Total time                  ....      52.515 sec
Sum of individual times     ....      52.464 sec  ( 99.9%)

SCF preparation             ....       0.219 sec  (  0.4%)
Fock matrix formation       ....      51.618 sec  ( 98.3%)
  Startup                   ....       0.022 sec  (  0.0% of F)
  Split-RI-J                ....      11.505 sec  ( 22.3% of F)
  XC integration            ....      22.229 sec  ( 43.1% of F)
    Basis function eval.    ....       5.157 sec  ( 23.2% of XC)
    Density eval.           ....       6.391 sec  ( 28.8% of XC)
    XC-Functional eval.     ....       0.318 sec  (  1.4% of XC)
    XC-Potential eval.      ....       9.814 sec  ( 44.1% of XC)
  CPCM terms                ....      17.742 sec  ( 34.4% of F)
Diagonalization             ....       0.000 sec  (  0.0%)
Density matrix formation    ....       0.071 sec  (  0.1%)
Total Energy calculation    ....       0.036 sec  (  0.1%)
Population analysis         ....       0.027 sec  (  0.1%)
Orbital Transformation      ....       0.055 sec  (  0.1%)
Orbital Orthonormalization  ....       0.000 sec  (  0.0%)
DIIS solution               ....       0.245 sec  (  0.5%)
SOSCF solution              ....       0.193 sec  (  0.4%)
Finished LeanSCF after  52.6 sec

Maximum memory used throughout the entire LEANSCF-calculation: 80.5 MB

-------------------------   --------------------
FINAL SINGLE POINT ENERGY     -1991.442421986099
-------------------------   --------------------

------------------------------------------------------------------------------
                         ORCA SCF GRADIENT CALCULATION
------------------------------------------------------------------------------

Nuc. rep. gradient        (SHARK) ... done (  0.0 sec)
HCore & Overlap gradient  (SHARK) ... done (  0.5 sec)
Split-RIJ-J gradient      (SHARK) ... done (  3.4 sec)
XC gradient                       ... done ( 13.7 sec)
CPCM gradient                     ... done (  1.9 sec)

------------------
CARTESIAN GRADIENT
------------------

   1   C   :    0.001901274   -0.005284691   -0.001381610
   2   C   :    0.002283956    0.004082187    0.001245092
   3   C   :    0.010677241   -0.012053991    0.002833483
   4   C   :   -0.003239255    0.014060160   -0.000794482
   5   C   :    0.001743398    0.001264060   -0.000604156
   6   C   :   -0.014117208   -0.006332614   -0.000272471
   7   Cl  :    0.017623875    0.005804955    0.000779706
   8   O   :   -0.002507306   -0.001244536    0.000110372
   9   O   :   -0.009749199    0.001855222   -0.004128926
  10   C   :    0.004031153    0.003107570    0.001734843
  11   C   :    0.001148611   -0.006693667    0.006358857
  12   C   :   -0.002719597    0.000181931   -0.001678635
  13   C   :    0.003671086    0.010136425   -0.004994182
  14   C   :    0.003885735    0.005264150    0.002401846
  15   C   :   -0.002650496   -0.004963591   -0.001050087
  16   Cl  :   -0.004639464   -0.013981422    0.007075137
  17   Cl  :   -0.002715856    0.004390589   -0.008683244
  18   H   :    0.002378759   -0.001866133   -0.001001972
  19   H   :   -0.002387466   -0.003452771    0.001247951
  20   H   :   -0.000902358    0.002549885   -0.000371069
  21   H   :   -0.003881523    0.001711652    0.002247432
  22   H   :   -0.001705255   -0.000542662   -0.001687587
  23   H   :    0.000035020   -0.000016690    0.002268110
  24   H   :    0.001834875    0.002023984   -0.001654408

Difference to translation invariance:
           :   -0.0000000001    0.0000000000   -0.0000000000

Difference to rotation invariance:
           :    0.0007748632   -0.0002787578    0.0000108178

Norm of the Cartesian gradient     ...    0.0452145920
RMS gradient                       ...    0.0053285908
MAX gradient                       ...    0.0176238754

-------
TIMINGS
-------

Total SCF gradient time     ....       20.716 sec

Densities                   ....       0.003 sec  (  0.0%)
One electron gradient       ....       0.475 sec  (  2.3%)
RI-J Coulomb gradient       ....       3.369 sec  ( 16.3%)
XC gradient                 ....      13.665 sec  ( 66.0%)
CPCM gradient               ....       1.854 sec  (  8.9%)
   A-Matrix (El+Nuc)        ....       0.179 sec  (  0.9%)
   Potential                ....       1.675 sec  (  8.1%)

Maximum memory used throughout the entire SCFGRAD-calculation: 61.7 MB
------------------------------------------------------------------------------
                         ORCA GEOMETRY RELAXATION STEP
------------------------------------------------------------------------------

Reading the OPT-File                    .... done
Getting information on internals        .... done
Copying old internal coords+grads       .... done
Making the new internal coordinates     .... (2022 redundants) done
Validating the new internal coordinates .... (2022 redundants) done
Calculating the B-matrix                .... done
Calculating the G,G- and P matrices     .... done
Transforming gradient to internals      .... done
Projecting the internal gradient        .... done
Number of atoms                         ....  24
Number of internal coordinates          .... 118
Current Energy                          .... -1991.442421986 Eh
Current gradient norm                   ....     0.045214592 Eh/bohr
[...]

  2 C s       :     2.752550  s :     2.752550
      pz      :     1.049797  p :     3.073621
      px      :     0.942410
      py      :     1.081414
      dz2     :     0.019244  d :     0.241057
      dxz     :     0.037243
      dyz     :     0.023874
      dx2y2   :     0.089312
      dxy     :     0.071384

  3 C s       :     2.754617  s :     2.754617
      pz      :     0.958383  p :     3.013355
      px      :     1.000083
      py      :     1.054889
      dz2     :     0.019672  d :     0.254742
      dxz     :     0.044253
      dyz     :     0.033009
      dx2y2   :     0.075929
      dxy     :     0.081880

  4 C s       :     2.787384  s :     2.787384
      pz      :     1.017175  p :     3.176797
      px      :     1.088629
      py      :     1.070993
      dz2     :     0.009442  d :     0.121181
      dxz     :     0.021737
      dyz     :     0.007482
      dx2y2   :     0.041246
      dxy     :     0.041274

  5 C s       :     2.843029  s :     2.843029
      pz      :     1.035922  p :     3.212666
      px      :     1.033006
      py      :     1.143738
      dz2     :     0.014357  d :     0.187775
      dxz     :     0.024626
      dyz     :     0.025073
      dx2y2   :     0.060552
      dxy     :     0.063166

  6 Cls       :     5.660287  s :     5.660287
      pz      :     3.903138  p :    11.103343
      px      :     3.387446
      py      :     3.812760
      dz2     :     0.004374  d :     0.030491
      dxz     :     0.006415
      dyz     :     0.001389
      dx2y2   :     0.008460
      dxy     :     0.009852

  7 O s       :     3.393847  s :     3.393847
      pz      :     1.761693  p :     4.647238
      px      :     1.285057
      py      :     1.600488
      dz2     :     0.002744  d :     0.019069
      dxz     :     0.002058
      dyz     :     0.001634
      dx2y2   :     0.002645
      dxy     :     0.009988

  8 O s       :     3.391775  s :     3.391775
      pz      :     1.648193  p :     4.696805
      px      :     1.474054
      py      :     1.574558
      dz2     :     0.003741  d :     0.025130
      dxz     :     0.005074
      dyz     :     0.005318
      dx2y2   :     0.006302
      dxy     :     0.004694

  9 C s       :     2.756851  s :     2.756851
      pz      :     1.040783  p :     3.053639
      px      :     1.061200
      py      :     0.951656
      dz2     :     0.057430  d :     0.250736
      dxz     :     0.049827
      dyz     :     0.060541
      dx2y2   :     0.045215
      dxy     :     0.037722

 10 C s       :     2.831225  s :     2.831225
      pz      :     1.033039  p :     3.222057
      px      :     1.089737
      py      :     1.099281
      dz2     :     0.045563  d :     0.183321
      dxz     :     0.043565
      dyz     :     0.035826
      dx2y2   :     0.029617
      dxy     :     0.028748

 11 C s       :     2.795376  s :     2.795376
      pz      :     1.091579  p :     3.175105
      px      :     1.045836
      py      :     1.037690
      dz2     :     0.033967  d :     0.128450
      dxz     :     0.030890
      dyz     :     0.029798
      dx2y2   :     0.015416
      dxy     :     0.018378

 12 C s       :     2.841654  s :     2.841654
      pz      :     1.087172  p :     3.227330
      px      :     1.106394
      py      :     1.033764
      dz2     :     0.040820  d :     0.186649
      dxz     :     0.042972
      dyz     :     0.040734
      dx2y2   :     0.030171
      dxy     :     0.031951

 13 C s       :     2.795560  s :     2.795560
      pz      :     1.058898  p :     3.147425
      px      :     1.050061
      py      :     1.038467
      dz2     :     0.026953  d :     0.129624
      dxz     :     0.026830
      dyz     :     0.022113
      dx2y2   :     0.026714
      dxy     :     0.027014

 14 C s       :     2.780757  s :     2.780757
      pz      :     1.059230  p :     3.140268
      px      :     1.043617
      py      :     1.037421
      dz2     :     0.036722  d :     0.125041
      dxz     :     0.028238
      dyz     :     0.026657
      dx2y2   :     0.013431
      dxy     :     0.019992

 15 Cls       :     5.659136  s :     5.659136
      pz      :     3.681155  p :    11.097670
      px      :     3.815204
      py      :     3.601310
      dz2     :     0.004008  d :     0.031006
      dxz     :     0.005482
      dyz     :     0.010195
      dx2y2   :     0.005629
      dxy     :     0.005692

 16 Cls       :     5.647251  s :     5.647251
      pz      :     3.400940  p :    11.060625
      px      :     3.778549
      py      :     3.881136
      dz2     :     0.012587  d :     0.032438
      dxz     :     0.010571
      dyz     :     0.005889
      dx2y2   :     0.001291
      dxy     :     0.002100

 17 H s       :     0.826152  s :     0.826152
      pz      :     0.015942  p :     0.072039
      px      :     0.033940
      py      :     0.022157

 18 H s       :     0.812814  s :     0.812814
      pz      :     0.015202  p :     0.071111
      px      :     0.011616
      py      :     0.044293

 19 H s       :     0.813862  s :     0.813862
      pz      :     0.016507  p :     0.072252
      px      :     0.010851
      py      :     0.044895

 20 H s       :     0.662722  s :     0.662722
      pz      :     0.046207  p :     0.184800
      px      :     0.074886
      py      :     0.063707

 21 H s       :     0.814192  s :     0.814192
      pz      :     0.014121  p :     0.071835
      px      :     0.036237
      py      :     0.021478

 22 H s       :     0.823890  s :     0.823890
      pz      :     0.039223  p :     0.071353
      px      :     0.018400
      py      :     0.013731

 23 H s       :     0.808384  s :     0.808384
      pz      :     0.014844  p :     0.073718
      px      :     0.036177
      py      :     0.022698



                      *****************************
                      * MAYER POPULATION ANALYSIS *
                      *****************************

  NA   - Mulliken gross atomic population
  ZA   - Total nuclear charge
  QA   - Mulliken gross atomic charge
  VA   - Mayer's total valence
  BVA  - Mayer's bonded valence
  FA   - Mayer's free valence

  ATOM       NA         ZA         QA         VA         BVA        FA
  0 C      6.6813     6.0000    -0.6813     4.3924     4.3924     0.0000
  1 C      6.0017     6.0000    -0.0017     4.2567     4.2567     0.0000
  2 C      6.1641     6.0000    -0.1641     3.8902     3.8902    -0.0000
  3 C      6.4932     6.0000    -0.4932     4.3811     4.3811    -0.0000
  4 C      6.2880     6.0000    -0.2880     3.9423     3.9423     0.0000
  5 C      5.2242     6.0000     0.7758     2.2153     2.2153    -0.0000
  6 Cl    16.5479    17.0000     0.4521     0.8110     0.8110     0.0000
  7 O      8.2444     8.0000    -0.2444     2.0276     2.0276    -0.0000
  8 O      7.9216     8.0000     0.0784     1.6383     1.6383     0.0000
  9 C      8.6997     6.0000    -2.6997     5.2333     5.2333    -0.0000
 10 C      4.8840     6.0000     1.1160     5.5645     5.5645     0.0000
 11 C      6.4793     6.0000    -0.4793     4.1652     4.1652    -0.0000
 12 C      4.9210     6.0000     1.0790     0.9613     0.9613     0.0000
 13 C      6.4642     6.0000    -0.4642     3.9251     3.9251     0.0000
 14 C      6.3353     6.0000    -0.3353     4.8227     4.8227    -0.0000
 15 Cl    16.5554    17.0000     0.4446     0.7573     0.7573     0.0000
 16 Cl    16.5945    17.0000     0.4055     0.9624     0.9624    -0.0000
 17 H      0.8111     1.0000     0.1889     0.9448     0.9448    -0.0000
 18 H      0.8130     1.0000     0.1870     0.9610     0.9610    -0.0000
 19 H      0.8113     1.0000     0.1887     0.9502     0.9502     0.0000
 20 H      0.6867     1.0000     0.3133     0.9487     0.9487    -0.0000
 21 H      0.7908     1.0000     0.2092     0.9281     0.9281     0.0000
 22 H      0.8064     1.0000     0.1936     0.9404     0.9404    -0.0000
 23 H      0.7810     1.0000     0.2190     0.9336     0.9336    -0.0000

  Mayer bond orders larger than 0.100000
B(  0-C ,  1-C ) :   1.2483 B(  0-C ,  3-C ) :  -0.1052 B(  0-C ,  4-C ) :   0.3862 
B(  0-C ,  5-C ) :   1.2888 B(  0-C ,  6-Cl) :   0.6211 B(  0-C ,  9-C ) :  -0.1532 
B(  0-C , 10-C ) :   0.1457 B(  0-C , 11-C ) :   0.1008 B(  0-C , 13-C ) :   0.1567 
B(  0-C , 14-C ) :  -0.1704 B(  0-C , 17-H ) :   0.9497 B(  1-C ,  2-C ) :   1.2155 
B(  1-C ,  3-C ) :   0.8957 B(  1-C ,  5-C ) :  -0.1265 B(  1-C ,  6-Cl) :   0.1962 
B(  1-C ,  8-O ) :  -0.1312 B(  1-C ,  9-C ) :   0.4051 B(  1-C , 11-C ) :  -0.2558 
B(  1-C , 13-C ) :  -0.1146 B(  1-C , 14-C ) :   0.1152 B(  1-C , 18-H ) :   0.9686 
B(  2-C ,  3-C ) :   1.0835 B(  2-C ,  5-C ) :   0.2594 B(  2-C ,  7-O ) :  -0.5460 
B(  2-C ,  8-O ) :   1.9113 B(  2-C , 10-C ) :   0.1544 B(  2-C , 11-C ) :   0.1927 
B(  2-C , 13-C ) :   0.2085 B(  2-C , 14-C ) :  -0.4174 B(  2-C , 16-Cl) :  -0.1788 
B(  2-C , 20-H ) :  -0.1627 B(  2-C , 23-H ) :   0.1325 B(  3-C ,  4-C ) :   1.0681 
B(  3-C ,  5-C ) :  -0.2273 B(  3-C ,  6-Cl) :   0.1790 B(  3-C ,  7-O ) :   1.9928 
B(  3-C ,  8-O ) :  -0.7351 B(  3-C ,  9-C ) :   0.1355 B(  3-C , 10-C ) :  -0.3869 
B(  3-C , 13-C ) :  -0.2914 B(  3-C , 14-C ) :   0.3620 B(  3-C , 16-Cl) :   0.1073 
B(  3-C , 20-H ) :   0.1869 B(  4-C ,  5-C ) :   1.6640 B(  4-C ,  6-Cl) :   0.5461 
B(  4-C ,  7-O ) :  -0.3944 B(  4-C ,  8-O ) :  -0.1392 B(  4-C ,  9-C ) :  -0.3513 
B(  4-C , 11-C ) :   0.1373 B(  4-C , 13-C ) :   0.1286 B(  4-C , 19-H ) :   0.8675 
B(  5-C ,  6-Cl) :  -0.7246 B(  5-C , 14-C ) :   0.1963 B(  7-O ,  9-C ) :   0.2318 
B(  7-O , 14-C ) :  -0.1721 B(  7-O , 20-H ) :   0.8456 B(  8-O ,  9-C ) :   1.6159 
B(  8-O , 10-C ) :  -0.7349 B(  9-C , 10-C ) :   2.5318 B(  9-C , 11-C ) :  -1.5982 
B(  9-C , 12-C ) :  -0.6211 B(  9-C , 13-C ) :  -0.5407 B(  9-C , 14-C ) :   1.7079 
B(  9-C , 16-Cl) :   1.4521 B(  9-C , 21-H ) :   0.2030 B( 10-C , 11-C ) :   3.1354 
B( 10-C , 13-C ) :   0.3991 B( 10-C , 14-C ) :   1.4229 B( 10-C , 15-Cl) :   0.2142 
B( 10-C , 16-Cl) :  -1.3304 B( 11-C , 12-C ) :   1.1359 B( 11-C , 14-C ) :  -0.8615 
B( 11-C , 15-Cl) :   0.6732 B( 11-C , 16-Cl) :   0.4625 B( 11-C , 21-H ) :   0.9116 
B( 12-C , 13-C ) :   1.2784 B( 12-C , 15-Cl) :  -0.9173 B( 12-C , 16-Cl) :   0.1317 
B( 13-C , 14-C ) :   1.3873 B( 13-C , 15-Cl) :   0.6226 B( 13-C , 22-H ) :   0.9438 
B( 13-C , 23-H ) :  -0.1344 B( 14-C , 15-Cl) :   0.1326 B( 14-C , 16-Cl) :   0.3184 
B( 14-C , 23-H ) :   1.0023 

-------
TIMINGS
-------

Total SCF time: 0 days 0 hours 0 min 24 sec 

Total time                  ....      24.730 sec
Sum of individual times     ....      24.668 sec  ( 99.7%)

SCF preparation             ....       0.228 sec  (  0.9%)
Fock matrix formation       ....      24.136 sec  ( 97.6%)
  Startup                   ....       0.014 sec  (  0.1% of F)
  Split-RI-J                ....       5.513 sec  ( 22.8% of F)
  XC integration            ....      10.071 sec  ( 41.7% of F)
    Basis function eval.    ....       2.479 sec  ( 24.6% of XC)
    Density eval.           ....       2.927 sec  ( 29.1% of XC)
    XC-Functional eval.     ....       0.182 sec  (  1.8% of XC)
    XC-Potential eval.      ....       4.216 sec  ( 41.9% of XC)
  CPCM terms                ....       8.475 sec  ( 35.1% of F)
Diagonalization             ....       0.000 sec  (  0.0%)
Density matrix formation    ....       0.031 sec  (  0.1%)
Total Energy calculation    ....       0.020 sec  (  0.1%)
Population analysis         ....       0.047 sec  (  0.2%)
Orbital Transformation      ....       0.027 sec  (  0.1%)
Orbital Orthonormalization  ....       0.000 sec  (  0.0%)
DIIS solution               ....       0.030 sec  (  0.1%)
SOSCF solution              ....       0.149 sec  (  0.6%)
Finished LeanSCF after  24.8 sec

Maximum memory used throughout the entire LEANSCF-calculation: 83.2 MB

-------------------------   --------------------
FINAL SINGLE POINT ENERGY     -1991.448760996081
-------------------------   --------------------

                                *** OPTIMIZATION RUN DONE ***


------------------------------------------------------------------------------
                              ORCA PROPERTY CALCULATIONS
------------------------------------------------------------------------------

GBWName                                 ... Triclosan\Triclosan_PBE_6-311+G\Triclosan_PBE_6-311+G.orcainp.gbw
Number of atoms                         ...     24
Number of basis functions               ...    440
Max core memory                         ...   1024 MB

Electric properties:
Dipole moment                           ... YES
Quadrupole moment                       ...  NO
Static polarizability (Dipole/Dipole)   ...  NO
Static polarizability (Dipole/Quad.)    ...  NO
Static polarizability (Quad./Quad.)     ...  NO
Static polarizability (Velocity)        ...  NO

Atomic electric properties:
Dipole moment                           ...  NO
Quadrupole moment                       ...  NO
Static polarizability                   ...  NO

Choice of electric origin               ... Center of mass
Position of electric origin             ...     4.646332     3.851533    -1.058873

General magnetic properties:
Magnetizability                         ...  NO

EPR properties:
g-Tensor (aka g-matrix)                 ...  NO
Zero-Field splitting spin-orbit         ...  NO
Zero-field splitting spin-spin          ...  NO
Hyperfine couplings                     ...  NO (   0 nuclei)
Quadrupole couplings                    ...  NO (   0 nuclei)
Contact density                         ...  NO (   0 nuclei)

NMR properties:
Chemical shifts                         ...  NO (   0 nuclei)
Spin-rotation constants                 ...  NO (   0 nuclei)
Spin-spin couplings                     ...  NO (   0 nuclei,    0 pairs)

Choice of magnetic origin               ... GIAO
Position of magnetic origin             ...     0.000000     0.000000     0.000000

Properties with geometric perturbations:
SCF Hessian                             ...  NO
IR spectrum                             ...  NO
VCD spectrum                            ...  NO
X-ray spectroscopy properties:
SCF XES/XAS/RIXS spectra                ...  NO


-------------
DIPOLE MOMENT
-------------

Method             : SCF
Type of density    : Electron Density
Multiplicity       :   1
Irrep              :   0
Energy             : -1991.4487609960810914 Eh
Relativity type    : 
Basis              : AO
                                X                 Y                 Z
Electronic contribution:      4.396498888       3.656334501       0.973507172
Nuclear contribution   :     -4.363294518      -3.161049025      -1.315619735
                        -----------------------------------------
Total Dipole Moment    :      0.033204370       0.495285476      -0.342112562
                        -----------------------------------------
Magnitude (a.u.)       :      0.602869172
Magnitude (Debye)      :      1.532371655



--------------------
Rotational spectrum 
--------------------
 
Rotational constants in cm-1:             0.021604             0.004932             0.004360 
Rotational constants in MHz :           647.672056           147.872018           130.695281 

Dipole components along the rotational axes: 
x,y,z [a.u.] :    -0.404620    -0.428097     0.128323 
x,y,z [Debye]:    -1.028463    -1.088135     0.326171 

 

Dipole moment calculation done in   0.0 sec 

Maximum memory used throughout the entire PROP-calculation: 35.5 MB

--------------------------------
SUGGESTED CITATIONS FOR THIS RUN
--------------------------------

Below you find a list of papers that are relevant to this ORCA run
We neither can nor want to force you to cite these papers, but we appreciate if you do
You receive ORCA, which is the product of decades of hard work by many enthusiastic individuals, for free
The only thing we kindly ask in return is that you cite our papers,
We deeply appreciate it, if you show your appreciation for ORCA by not just citing the generic ORCA reference.

Please note that relegating all ORCA citations to the supporting information does *not* help us.
SI sections are not indexed - citations you put there will not count into any citation statistics
But we need these citations in order to attract the funding resources that allow us to do what we are doing

Therefore, if you are a happy ORCA user, please consider citing a few of the papers listed below in the main body of your paper

In addition to the list printed below, the program has created the file Triclosan\Triclosan_PBE_6-311+G\Triclosan_PBE_6-311+G.orcainp.bibtex that contains the list in bibtex format
You can import this file easily into all common literature databanks and citation aid programs


List of essential papers. We consider these as the minimum necessary citations

  1. Neese,F.
     Software update: the ORCA program system, version 5.0
     WIRES Comput. Molec. Sci., 2022 12(1)e1606
     doi.org/10.1002/wcms.1606

List of papers to cite with high priority. The work reported in these papers was absolutely
necessary for this run to complete.
Our perspective: the developers of density functionals and basis sets usually get cited in chemistry papers
Good! But without the algorithms to do something with them, the functionals or basis sets would not do anything.
Hence, in our opinion, the algorithm design and method developments papers are equally worthy of getting cited

  1. Neese,F.
     An improvement of the resolution of the identity approximation for the formation of the Coulomb matrix
     J. Comp. Chem., 2003 24(14)1740-1747
     doi.org/10.1002/jcc.10318
  2. Garcia-Rates,M.; Neese,F.
     Effect of the Solute Cavity on the Solvation Energy and its Derivatives within the Framework of the Gaussian Charge Scheme
     J. Comput. Chem., 2020 41 922-939
     doi.org/10.1002/jcc.26139
  3. Neese,F.
     The SHARK Integral Generation and Digestion System
     J. Comp. Chem., 2022  1-16
     doi.org/10.1002/jcc.26942

List of suggested additional citations. These are papers that are important in the 'surrounding' of 
of this run, or papers that preceded the highly important papers. If you like your results we are grateful for a citation.

  1. Neese,F.
     The ORCA program system
     WIRES Comput. Molec. Sci., 2012 2(1)73-78
     doi.org/10.1002/wcms.81
  2. Neese,F.
     Software update: the ORCA program system, version 4.0
     WIRES Comput. Molec. Sci., 2018 8(1)1-6
     doi.org/10.1002/wcms.1327
  3. Neese,F.; Wennmohs,F.; Becker,U.; Riplinger,C.
     The ORCA quantum chemistry program package
     J. Chem. Phys., 2020 152 Art. No. L224108
     doi.org/10.1063/5.0004608

List of optional additional citations

  1. Neese,F.
     Approximate second-order SCF convergence for spin unrestricted wavefunctions
     Chem. Phys. Lett., 2000 325(1-3)93-98
     doi.org/10.1016/s0009-2614(00)00662-x

Timings for individual modules:

Sum of individual times          ...      980.059 sec (=  16.334 min)
Startup calculation              ...       17.024 sec (=   0.284 min)   1.7 %
SCF iterations                   ...      650.174 sec (=  10.836 min)  66.3 %
Property calculations            ...        0.101 sec (=   0.002 min)   0.0 %
SCF Gradient evaluation          ...      312.636 sec (=   5.211 min)  31.9 %
Geometry relaxation              ...        0.124 sec (=   0.002 min)   0.0 %
                             ****ORCA TERMINATED NORMALLY****
TOTAL RUN TIME: 0 days 0 hours 16 minutes 21 seconds 740 msec
