
                                 *****************
                                 * O   R   C   A *
                                 *****************

                                            #,                                       
                                            ###                                      
                                            ####                                     
                                            #####                                    
                                            ######                                   
                                           ########,                                 
                                     ,,################,,,,,                         
                               ,,#################################,,                 
                          ,,##########################################,,             
                       ,#########################################, ''#####,          
                    ,#############################################,,   '####,        
                  ,##################################################,,,,####,       
                ,###########''''           ''''###############################       
              ,#####''   ,,,,##########,,,,          '''####'''          '####       
            ,##' ,,,,###########################,,,                        '##       
           ' ,,###''''                  '''############,,,                           
         ,,##''                                '''############,,,,        ,,,,,,###''
      ,#''                                            '''#######################'''  
     '                                                          ''''####''''         
             ,#######,   #######,   ,#######,      ##                                
            ,#'     '#,  ##    ##  ,#'     '#,    #''#        ,####,   ,####,        
            ##       ##  ##   ,#'  ##            #'  '#       #'       #'  '#        
            ##       ##  #######   ##           ,######,      #####,   #    #        
            '#,     ,#'  ##    ##  '#,     ,#' ,#      #,     #,   #   #,  ,#        
             '#######'   ##     ##  '#######'  #'      '#     '####' # '####'        



                #########################################################
                #                        -***-                          #
                #          Department of theory and spectroscopy        #
                #                                                       #
                #                      Frank Neese                      #
                #                                                       #
                #     Directorship, Architecture, Infrastructure        #
                #                    SHARK, DRIVERS                     #
                #        Core code/Algorithms in most modules           #
                #                                                       #
                #        Max Planck Institute fuer Kohlenforschung      #
                #                Kaiser Wilhelm Platz 1                 #
                #                 D-45470 Muelheim/Ruhr                 #
                #                      Germany                          #
                #                                                       #
                #                  All rights reserved                  #
                #                        -***-                          #
                #########################################################


                         Program Version 6.0.0  -   RELEASE   -


 With contributions from (in alphabetic order):
   Daniel Aravena         : Magnetic Suceptibility
   Michael Atanasov       : Ab Initio Ligand Field Theory (pilot matlab implementation)
   Alexander A. Auer      : GIAO ZORA, VPT2 properties, NMR spectrum
   Ute Becker             : All parallelization in ORCA, NUMFREQ, NUMCALC
   Giovanni Bistoni       : ED, misc. LED, open-shell LED, HFLD
   Martin Brehm           : Molecular dynamics
   Dmytro Bykov           : pre 5.0 version of the SCF Hessian
   Marcos Casanova-Páez   : Triplet and SCS-CIS(D). UHF-(DLPNO)-IP/EA/STEOM-CCSD. UHF-CVS-IP/STEOM-CCSD
   Vijay G. Chilkuri      : MRCI spin determinant printing, contributions to CSF-ICE
   Pauline Colinet        : FMM embedding
   Dipayan Datta          : RHF DLPNO-CCSD density
   Achintya Kumar Dutta   : EOM-CC, STEOM-CC
   Nicolas Foglia         : Exact transition moments, OPA infrastructure, MCD improvements
   Dmitry Ganyushin       : Spin-Orbit,Spin-Spin,Magnetic field MRCI
   Miquel Garcia          : C-PCM and meta-GGA Hessian, CCSD/C-PCM, Gaussian charge scheme
   Tiago L. C. Gouveia    : GS-ROHF, GS-ROCIS
   Yang Guo               : DLPNO-NEVPT2, F12-NEVPT2, CIM, IAO-localization
   Andreas Hansen         : Spin unrestricted coupled pair/coupled cluster methods
   Ingolf Harden          : AUTO-CI MPn and infrastructure 
   Benjamin Helmich-Paris : MC-RPA, TRAH-(SCF,CASSCF), AVAS, COSX integrals, SCF dyn. polar.
   Lee Huntington         : MR-EOM, pCC
   Robert Izsak           : Overlap fitted RIJCOSX, COSX-SCS-MP3, EOM
   Riya Kayal             : Wick's Theorem for AUTO-CI, AUTO-CI UHF-CCSDT
   Emily Kempfer          : AUTO-CI, RHF CISDT and CCSDT
   Christian Kollmar      : KDIIS, OOCD, Brueckner-CCSD(T), CCSD density, CASPT2, CASPT2-K, improved NEVPT2
   Axel Koslowski         : Symmetry handling
   Simone Kossmann        : Meta GGA functionals, TD-DFT gradient, OOMP2, (MP2 Hessian; deprecated post 5.0)
   Lucas Lang             : DCDCAS
   Marvin Lechner         : AUTO-CI (C++ implementation), FIC-MRCC
   Spencer Leger          : CASSCF response
   Dagmar Lenk            : GEPOL surface, SMD, ORCA-2-JSON
   Dimitrios Liakos       : Extrapolation schemes; Compound Job, initial MDCI parallelization
   Dimitrios Manganas     : Further ROCIS development; embedding schemes. LFT, Crystal Embedding
   Dimitrios Pantazis     : SARC Basis sets
   Anastasios Papadopoulos: AUTO-CI, single reference methods and gradients
   Taras Petrenko         : pre 6.0 DFT Hessian and TD-DFT gradient, (ASA, deprecated), ECA, 1-Electron XAS/XES, NRVS
   Peter Pinski           : DLPNO-MP2, DLPNO-MP2 Gradient
   Christoph Reimann      : Effective Core Potentials
   Marius Retegan         : Local ZFS, SOC
   Christoph Riplinger    : Optimizer, TS searches, QM/MM, DLPNO-CCSD(T), (RO)-DLPNO pert. Triples
   Michael Roemelt        : Original ROCIS implementation
   Masaaki Saitow         : Open-shell DLPNO-CCSD energy and density
   Barbara Sandhoefer     : DKH picture change effects
   Kantharuban Sivalingam : CASSCF convergence/infrastructure, NEVPT2 and variants, FIC-MRCI
   Bernardo de Souza      : ESD, SOC TD-DFT
   Georgi Stoychev        : AutoAux, RI-MP2 NMR, DLPNO-MP2 response, X2C
   Van Anh Tran           : RI-MP2 g-tensors
   Willem Van den Heuvel  : Paramagnetic NMR
   Zikuan Wang            : NOTCH, Electric field optimization 
   Frank Wennmohs         : Technical directorship and infrastructure
   Hang Xu                : AUTO-CI-Response properties 


 We gratefully acknowledge several colleagues who have allowed us to
 interface, adapt or use parts of their codes:
   Stefan Grimme, W. Hujo, H. Kruse, P. Pracht,  : VdW corrections, initial TS optimization,
                  C. Bannwarth, S. Ehlert,         DFT functionals, gCP, sTDA/sTD-DF
                  L. Wittmann, M. Mueller
   Ed Valeev, F. Pavosevic, A. Kumar             : LibInt (2-el integral package), F12 methods
   Garnet Chan, S. Sharma, J. Yang, R. Olivares  : DMRG
   Ulf Ekstrom                                   : XCFun DFT Library
   Mihaly Kallay                                 : mrcc  (arbitrary order and MRCC methods)
   Frank Weinhold                                : gennbo (NPA and NBO analysis)
   Simon Mueller                                 : openCOSMO-RS
   Christopher J. Cramer and Donald G. Truhlar   : smd solvation model
   Lars Goerigk                                  : TD-DFT with DH, B97 family of functionals
   V. Asgeirsson, H. Jonsson                     : NEB implementation
   FAccTs GmbH                                   : IRC, NEB, NEB-TS, DLPNO-Multilevel, CI-OPT
                                                   MM, QMMM, 2- and 3-layer-ONIOM, Crystal-QMMM,
                                                   LR-CPCM, SF, NACMEs, symmetry and pop. for TD-DFT,
                                                   nearIR, NL-DFT gradient (VV10), updates on ESD,
                                                   ML-optimized integration grids, MBIS, APM,
                                                   GOAT, DOCKER, SOLVATOR, interface openCOSMO-RS
   S Lehtola, MJT Oliveira, MAL Marques          : LibXC Library
   Liviu Ungur et al                             : ANISO software


 Your calculation uses the libint2 library for the computation of 2-el integrals
 For citations please refer to: http://libint.valeyev.net

 Your ORCA version has been built with support for libXC version: 6.2.2
 For citations please refer to: https://libxc.gitlab.io

 This ORCA versions uses:
   CBLAS   interface :  Fast vector & matrix operations
   LAPACKE interface :  Fast linear algebra routines
   Shared memory     :  Shared parallel matrices


Warning: RI is on but no J-basis has been assigned. Assigning Def2/J (nothing to worry about!)
================================================================================

----- Orbital basis set information -----
Your calculation utilizes the basis: 6-311+G**
   H, Li - Ne  : R. Krishnan, J. S. Binkley, R. Seeger and J. A. Pople, J. Chem. Phys. 72, 650 (1980).
   Na - Ar     : A. D. McLean and G. S. Chandler J. Chem. Phys. 72, 5639, (1980).
   K  - Ca     : J.-P. Blaudeau, M. P. McGrath, L. A. Curtiss and L. Radom, J. Chem. Phys. 107, 5016 (1997).
   Ga - Kr     : L. A. Curtiss, M. P. McGrath, J.-P. Blandeau, N. E. Davis, R. C. Binning and L. Radom, J. Chem. Phys. 103, 6104 (1995).
   Pol./Diff.
   H, Li - Cl  : T. Clark, J. Chandrasekhar and P. v. R. Schleyer, J. Comp. Chem. 4, 294 (1983).
   H - Ne      : M. J. Frisch, J. A. Pople and J. S. Binkley, J. Chem. Phys. 80, 3265 (1984).

----- AuxJ basis set information -----
Your calculation utilizes the auxiliary basis: def2/J
   F. Weigend, Phys. Chem. Chem. Phys. 8, 1057 (2006).

================================================================================
                                        WARNINGS
                       Please study these warnings very carefully!
================================================================================


WARNING: Geometry Optimization
  ===> : Switching off AutoStart
         For restart on a previous wavefunction, please use MOREAD

================================================================================
                                       INPUT FILE
================================================================================
NAME = Dexketoprofen\Dexketoprofen_PBE_6-311+G\Dexketoprofen_PBE_6-311+G.orcainp
|  1> # ORCA input file
|  2> # 
|  3> !PBE 6-311+G** Opt CPCM(WATER)
|  4> * xyz 0 1
|  5>    H        1.09662        -0.20425         0.32676
|  6>    C        2.13797        -0.11108        -0.01052
|  7>    C        2.12649         0.62804        -1.35353
|  8>    C        2.82666         0.75101         1.05036
|  9>    O        3.42837         0.07530         2.05584
| 10>    O        2.79236         1.97380         1.05318
| 11>    C        2.71761        -1.51246        -0.17817
| 12>    C        1.93400        -2.64563         0.11349
| 13>    C        2.46764        -3.93628        -0.02637
| 14>    C        3.77114        -4.09904        -0.50532
| 15>    C        4.55448        -2.98406        -0.79480
| 16>    C        4.03583        -1.70072        -0.62371
| 17>    C        1.68733        -5.16375         0.28429
| 18>    O        1.87299        -6.17087        -0.39524
| 19>    C        0.70964        -5.21669         1.40278
| 20>    C        0.85415        -4.43205         2.55380
| 21>    C       -0.08941        -4.51477         3.57938
| 22>    C       -1.16344        -5.39791         3.47203
| 23>    C       -1.29213        -6.20776         2.34434
| 24>    C       -0.35568        -6.12155         1.31302
| 25>    H        1.60784         1.58944        -1.26613
| 26>    H        1.61662         0.04215        -2.12585
| 27>    H        3.14163         0.84360        -1.70681
| 28>    H        3.41398        -0.89696         1.96534
| 29>    H        0.90004        -2.51911         0.43007
| 30>    H        4.17798        -5.09810        -0.65507
| 31>    H        5.56968        -3.11822        -1.16231
| 32>    H        4.67199        -0.84709        -0.85704
| 33>    H        1.70284        -3.76706         2.68065
| 34>    H        0.01844        -3.89919         4.46945
| 35>    H       -1.89326        -5.46596         4.27487
| 36>    H       -2.11824        -6.91083         2.26952
| 37>    H       -0.45599        -6.76552         0.44094
| 38> *
| 39> 
| 40>                          ****END OF INPUT****
================================================================================

                       *****************************
                       * Geometry Optimization Run *
                       *****************************

Geometry optimization settings:
Update method            Update   .... BFGS
Choice of coordinates    CoordSys .... (2022) Redundant Internals
Initial Hessian          InHess   .... Almloef's Model
Max. no of cycles        MaxIter  .... 99

Convergence Tolerances:
Energy Change            TolE     ....  5.0000e-06 Eh
Max. Gradient            TolMAXG  ....  3.0000e-04 Eh/bohr
RMS Gradient             TolRMSG  ....  1.0000e-04 Eh/bohr
Max. Displacement        TolMAXD  ....  4.0000e-03 bohr
RMS Displacement         TolRMSD  ....  2.0000e-03 bohr
Strict Convergence                .... False

------------------------------------------------------------------------------
                        ORCA OPTIMIZATION COORDINATE SETUP
------------------------------------------------------------------------------

The optimization will be done in redundant internal coordinates (2022)
Making redundant internal coordinates   ...  (2022 redundants) done
Evaluating the initial hessian          ...  (Almloef) done
Evaluating the coordinates              ...  done
Calculating the B-matrix                .... done
Calculating the G-matrix                .... done
Diagonalizing the G-matrix              .... done
Small eigenvalue found = 3.170e-03
Small eigenvalue found = 1.297e-02
Small eigenvalue found = 1.621e-02
Small eigenvalue found = 2.759e-02
The first mode is                       ....   70
The number of degrees of freedom        ....   93

    -----------------------------------------------------------------
                    Redundant Internal Coordinates


    -----------------------------------------------------------------
         Definition                    Initial Value    Approx d2E/dq
    -----------------------------------------------------------------
      1. B(C   1,H   0)                  1.0986         0.348944   
      2. B(C   2,C   1)                  1.5330         0.369473   
      3. B(C   3,C   1)                  1.5307         0.372652   
      4. B(O   4,C   3)                  1.3526         0.641925   
      5. B(O   5,C   3)                  1.2233         1.032466   
      6. B(C   6,C   1)                  1.5258         0.379434   
      7. B(C   7,C   6)                  1.4083         0.584269   
      8. B(C   8,C   7)                  1.4036         0.594335   
      9. B(C   9,C   8)                  1.3982         0.606230   
     10. B(C  10,C   9)                  1.3931         0.617825   
     11. B(C  11,C  10)                  1.3947         0.614066   
     12. B(C  11,C   6)                  1.4042         0.593137   
     13. B(C  12,C   8)                  1.4873         0.437013   
     14. B(O  13,C  12)                  1.2290         1.010854   
     15. B(C  14,C  12)                  1.4865         0.438298   
     16. B(C  15,C  14)                  1.4005         0.601163   
     17. B(C  16,C  15)                  1.3961         0.611058   
     18. B(C  17,C  16)                  1.3946         0.614253   
     19. B(C  18,C  17)                  1.3943         0.614980   
     20. B(C  19,C  18)                  1.3957         0.611839   
     21. B(C  19,C  14)                  1.4006         0.600891   
     22. B(H  20,C   2)                  1.0959         0.352421   
     23. B(H  21,C   2)                  1.0953         0.353138   
     24. B(H  22,C   2)                  1.0963         0.351916   
     25. B(H  23,O   4)                  0.9766         0.489251   
     26. B(H  24,C   7)                  1.0887         0.361802   
     27. B(H  25,C   9)                  1.0891         0.361338   
     28. B(H  26,C  10)                  1.0880         0.362786   
     29. B(H  27,C  11)                  1.0899         0.360266   
     30. B(H  28,C  15)                  1.0856         0.365937   
     31. B(H  29,C  16)                  1.0876         0.363337   
     32. B(H  30,C  17)                  1.0871         0.363936   
     33. B(H  31,C  18)                  1.0874         0.363602   
     34. B(H  32,C  19)                  1.0887         0.361815   
     35. A(C   2,C   1,C   3)          109.8164         0.362514   
     36. A(C   3,C   1,C   6)          114.9940         0.364166   
     37. A(H   0,C   1,C   2)          107.6234         0.322065   
     38. A(H   0,C   1,C   3)          105.1573         0.322518   
     39. A(H   0,C   1,C   6)          108.4184         0.323473   
     40. A(C   2,C   1,C   6)          110.4516         0.363632   
     41. A(C   1,C   2,H  21)          111.3037         0.322697   
     42. A(H  20,C   2,H  22)          106.9450         0.288815   
     43. A(C   1,C   2,H  20)          110.8947         0.322589   
     44. A(H  20,C   2,H  21)          107.7699         0.288972   
     45. A(H  21,C   2,H  22)          107.9994         0.288907   
     46. A(C   1,C   2,H  22)          111.7273         0.322513   
     47. A(O   4,C   3,O   5)          120.6713         0.472947   
     48. A(C   1,C   3,O   5)          123.5022         0.431297   
     49. A(C   1,C   3,O   4)          115.7213         0.396390   
     50. A(C   3,O   4,H  23)          114.9548         0.368459   
     51. A(C   7,C   6,C  11)          118.6996         0.426065   
     52. A(C   1,C   6,C  11)          120.9747         0.394689   
     53. A(C   1,C   6,C   7)          120.3257         0.393649   
     54. A(C   8,C   7,H  24)          119.7953         0.350675   
     55. A(C   6,C   7,C   8)          120.5118         0.426219   
     56. A(C   6,C   7,H  24)          119.6808         0.349665   
     57. A(C   7,C   8,C   9)          119.7099         0.429047   
     58. A(C   9,C   8,C  12)          117.6836         0.406186   
     59. A(C   7,C   8,C  12)          122.5885         0.404767   
     60. A(C   8,C   9,C  10)          120.1483         0.432043   
     61. A(C  10,C   9,H  25)          119.7093         0.352904   
     62. A(C   8,C   9,H  25)          120.1423         0.351775   
     63. A(C   9,C  10,H  26)          119.7490         0.353143   
     64. A(C  11,C  10,H  26)          120.1254         0.352779   
     65. A(C   9,C  10,C  11)          120.1238         0.433042   
     66. A(C  10,C  11,H  27)          118.5137         0.352363   
     67. A(C   6,C  11,H  27)          120.7236         0.350304   
     68. A(C   6,C  11,C  10)          120.7571         0.429881   
     69. A(O  13,C  12,C  14)          119.0903         0.442405   
     70. A(C   8,C  12,C  14)          122.1150         0.383734   
     71. A(C   8,C  12,O  13)          118.7862         0.442171   
     72. A(C  15,C  14,C  19)          119.5448         0.429245   
     73. A(C  12,C  14,C  19)          118.3624         0.405762   
     74. A(C  12,C  14,C  15)          122.0444         0.405795   
     75. A(C  14,C  15,C  16)          120.0549         0.430540   
     76. A(C  16,C  15,H  28)          118.6088         0.353002   
     77. A(C  14,C  15,H  28)          121.3241         0.352028   
     78. A(C  15,C  16,C  17)          120.0979         0.432209   
     79. A(C  17,C  16,H  29)          119.8540         0.352887   
     80. A(C  15,C  16,H  29)          120.0439         0.352576   
     81. A(C  16,C  17,C  18)          120.0752         0.432706   
     82. A(C  18,C  17,H  30)          119.9317         0.353056   
     83. A(C  16,C  17,H  30)          119.9868         0.352986   
     84. A(C  17,C  18,C  19)          119.9883         0.432400   
     85. A(C  19,C  18,H  31)          119.9232         0.352696   
     86. A(C  17,C  18,H  31)          120.0875         0.353001   
     87. A(C  14,C  19,C  18)          120.1907         0.430604   
     88. A(C  18,C  19,H  32)          119.5736         0.352402   
     89. A(C  14,C  19,H  32)          120.2350         0.351327   
     90. D(H  21,C   2,C   1,C   6)     53.5300         0.010915   
     91. D(H  21,C   2,C   1,H   0)    -64.6524         0.010915   
     92. D(H  20,C   2,C   1,H   0)     55.3150         0.010915   
     93. D(H  21,C   2,C   1,C   3)   -178.6116         0.010915   
     94. D(H  20,C   2,C   1,C   6)    173.4974         0.010915   
     95. D(H  20,C   2,C   1,C   3)    -58.6442         0.010915   
     96. D(O   4,C   3,C   1,C   2)   -151.9883         0.010389   
     97. D(O   4,C   3,C   1,C   6)    -26.6943         0.010389   
     98. D(O   4,C   3,C   1,H   0)     92.4788         0.010389   
     99. D(O   5,C   3,C   1,C   2)     31.7265         0.010389   
    100. D(O   5,C   3,C   1,H   0)    -83.8065         0.010389   
    101. D(H  23,O   4,C   3,C   1)      4.1282         0.030392   
    102. D(H  23,O   4,C   3,O   5)   -179.4731         0.030392   
    103. D(C   7,C   6,C   1,H   0)     -1.0391         0.010745   
    104. D(C   7,C   6,C   1,C   2)   -118.7338         0.010745   
    105. D(C   7,C   6,C   1,C   3)    116.3033         0.010745   
    106. D(C  11,C   6,C   1,C   2)     61.2718         0.010745   
    107. D(C  11,C   6,C   1,H   0)    178.9666         0.010745   
    108. D(H  24,C   7,C   6,C  11)   -178.0886         0.023470   
    109. D(C   8,C   7,C   6,C  11)      0.6435         0.023470   
    110. D(H  24,C   7,C   6,C   1)      1.9169         0.023470   
    111. D(C   8,C   7,C   6,C   1)   -179.3510         0.023470   
    112. D(C  12,C   8,C   7,H  24)     -2.0246         0.024327   
    113. D(C  12,C   8,C   7,C   6)    179.2448         0.024327   
    114. D(C   9,C   8,C   7,H  24)    176.3959         0.024327   
    115. D(C   9,C   8,C   7,C   6)     -2.3348         0.024327   
    116. D(H  25,C   9,C   8,C  12)      0.9930         0.025364   
    117. D(H  25,C   9,C   8,C   7)   -177.5042         0.025364   
    118. D(C  10,C   9,C   8,C  12)   -179.0959         0.025364   
    119. D(C  10,C   9,C   8,C   7)      2.4069         0.025364   
    120. D(C  11,C  10,C   9,C   8)     -0.7943         0.026402   
    121. D(H  26,C  10,C   9,H  25)     -0.4016         0.026402   
    122. D(H  26,C  10,C   9,C   8)    179.6869         0.026402   
    123. D(C  11,C  10,C   9,H  25)    179.1172         0.026402   
    124. D(H  27,C  11,C  10,H  26)     -0.5525         0.026063   
    125. D(H  27,C  11,C  10,C   9)    179.9305         0.026063   
    126. D(C   6,C  11,C  10,H  26)    178.5956         0.026063   
    127. D(C   6,C  11,C  10,C   9)     -0.9213         0.026063   
    128. D(H  27,C  11,C   6,C   7)   -179.8830         0.024224   
    129. D(C  10,C  11,C   6,C   7)      0.9877         0.024224   
    130. D(C  10,C  11,C   6,C   1)   -179.0178         0.024224   
    131. D(H  27,C  11,C   6,C   1)      0.1114         0.024224   
    132. D(C  14,C  12,C   8,C   9)    145.7235         0.013036   
    133. D(C  14,C  12,C   8,C   7)    -35.8257         0.013036   
    134. D(O  13,C  12,C   8,C   9)    -33.2109         0.013036   
    135. D(O  13,C  12,C   8,C   7)    145.2398         0.013036   
    136. D(C  19,C  14,C  12,O  13)    -27.6903         0.013111   
    137. D(C  19,C  14,C  12,C   8)    153.3783         0.013111   
    138. D(C  15,C  14,C  12,O  13)    149.7664         0.013111   
    139. D(C  15,C  14,C  12,C   8)    -29.1649         0.013111   
    140. D(H  28,C  15,C  14,C  19)    176.1303         0.024919   
    141. D(H  28,C  15,C  14,C  12)     -1.2973         0.024919   
    142. D(C  16,C  15,C  14,C  19)     -2.5779         0.024919   
    143. D(C  16,C  15,C  14,C  12)    179.9945         0.024919   
    144. D(H  29,C  16,C  15,H  28)      1.7750         0.025793   
    145. D(H  29,C  16,C  15,C  14)   -179.4820         0.025793   
    146. D(C  17,C  16,C  15,H  28)   -177.4721         0.025793   
    147. D(C  17,C  16,C  15,C  14)      1.2709         0.025793   
    148. D(H  30,C  17,C  16,H  29)      0.3171         0.026079   
    149. D(H  30,C  17,C  16,C  15)    179.5656         0.026079   
    150. D(C  18,C  17,C  16,H  29)   -178.7729         0.026079   
    151. D(C  18,C  17,C  16,C  15)      0.4756         0.026079   
    152. D(C  19,C  18,C  17,C  16)     -0.8972         0.026145   
    153. D(H  31,C  18,C  17,H  30)     -0.3334         0.026145   
    154. D(H  31,C  18,C  17,C  16)    178.7571         0.026145   
    155. D(C  19,C  18,C  17,H  30)   -179.9877         0.026145   
    156. D(H  32,C  19,C  18,H  31)     -0.3833         0.025863   
    157. D(H  32,C  19,C  18,C  17)    179.2716         0.025863   
    158. D(C  14,C  19,C  18,H  31)    179.9174         0.025863   
    159. D(C  14,C  19,C  18,C  17)     -0.4277         0.025863   
    160. D(H  32,C  19,C  14,C  15)   -177.5382         0.024895   
    161. D(H  32,C  19,C  14,C  12)     -0.0161         0.024895   
    162. D(C  18,C  19,C  14,C  15)      2.1591         0.024895   
    163. D(C  18,C  19,C  14,C  12)    179.6813         0.024895   
    -----------------------------------------------------------------

Number of atoms                         .... 33
Number of degrees of freedom            .... 163


         *************************************************************
         *                GEOMETRY OPTIMIZATION CYCLE   1            *
         *************************************************************
---------------------------------
CARTESIAN COORDINATES (ANGSTROEM)
---------------------------------
  H      1.096620   -0.204250    0.326760
  C      2.137970   -0.111080   -0.010520
  C      2.126490    0.628040   -1.353530
  C      2.826660    0.751010    1.050360
  O      3.428370    0.075300    2.055840
  O      2.792360    1.973800    1.053180
  C      2.717610   -1.512460   -0.178170
  C      1.934000   -2.645630    0.113490
  C      2.467640   -3.936280   -0.026370
  C      3.771140   -4.099040   -0.505320
  C      4.554480   -2.984060   -0.794800
  C      4.035830   -1.700720   -0.623710
  C      1.687330   -5.163750    0.284290
  O      1.872990   -6.170870   -0.395240
  C      0.709640   -5.216690    1.402780
  C      0.854150   -4.432050    2.553800
  C     -0.089410   -4.514770    3.579380
  C     -1.163440   -5.397910    3.472030
  C     -1.292130   -6.207760    2.344340
  C     -0.355680   -6.121550    1.313020
  H      1.607840    1.589440   -1.266130
  H      1.616620    0.042150   -2.125850
  H      3.141630    0.843600   -1.706810
  H      3.413980   -0.896960    1.965340
  H      0.900040   -2.519110    0.430070
  H      4.177980   -5.098100   -0.655070
  H      5.569680   -3.118220   -1.162310
  H      4.671990   -0.847090   -0.857040
  H      1.702840   -3.767060    2.680650
  H      0.018440   -3.899190    4.469450
  H     -1.893260   -5.465960    4.274870
  H     -2.118240   -6.910830    2.269520
  H     -0.455990   -6.765520    0.440940

----------------------------
CARTESIAN COORDINATES (A.U.)
----------------------------
  NO LB      ZA    FRAG     MASS         X           Y           Z
   0 H     1.0000    0     1.008    2.072311   -0.385977    0.617487
   1 C     6.0000    0    12.011    4.040178   -0.209911   -0.019880
   2 C     6.0000    0    12.011    4.018484    1.186824   -2.557801
   3 C     6.0000    0    12.011    5.341613    1.419203    1.984893
   4 O     8.0000    0    15.999    6.478680    0.142296    3.884975
   5 O     8.0000    0    15.999    5.276796    3.729941    1.990222
   6 C     6.0000    0    12.011    5.135539   -2.858135   -0.336693
   7 C     6.0000    0    12.011    3.654730   -4.999516    0.214465
   8 C     6.0000    0    12.011    4.663164   -7.438491   -0.049832
   9 C     6.0000    0    12.011    7.126422   -7.746063   -0.954916
  10 C     6.0000    0    12.011    8.606720   -5.639056   -1.501954
  11 C     6.0000    0    12.011    7.626613   -3.213895   -1.178641
  12 C     6.0000    0    12.011    3.188592   -9.758073    0.537230
  13 O     8.0000    0    15.999    3.539438  -11.661254   -0.746895
  14 C     6.0000    0    12.011    1.341025   -9.858115    2.650870
  15 C     6.0000    0    12.011    1.614110   -8.375361    4.825983
  16 C     6.0000    0    12.011   -0.168960   -8.531679    6.764048
  17 C     6.0000    0    12.011   -2.198583  -10.200572    6.561186
  18 C     6.0000    0    12.011   -2.441772  -11.730966    4.430161
  19 C     6.0000    0    12.011   -0.672138  -11.568053    2.481248
  20 H     1.0000    0     1.008    3.038377    3.003606   -2.392639
  21 H     1.0000    0     1.008    3.054969    0.079652   -4.017274
  22 H     1.0000    0     1.008    5.936820    1.594173   -3.225403
  23 H     1.0000    0     1.008    6.451487   -1.695009    3.713954
  24 H     1.0000    0     1.008    1.700829   -4.760428    0.812715
  25 H     1.0000    0     1.008    7.895238   -9.634013   -1.237903
  26 H     1.0000    0     1.008   10.525170   -5.892582   -2.196448
  27 H     1.0000    0     1.008    8.828782   -1.600768   -1.619571
  28 H     1.0000    0     1.008    3.217901   -7.118712    5.065694
  29 H     1.0000    0     1.008    0.034847   -7.368401    8.446036
  30 H     1.0000    0     1.008   -3.577743  -10.329167    8.078334
  31 H     1.0000    0     1.008   -4.002893  -13.059576    4.288771
  32 H     1.0000    0     1.008   -0.861696  -12.784980    0.833256

--------------------------------
INTERNAL COORDINATES (ANGSTROEM)
--------------------------------
 H      0   0   0     0.000000000000     0.00000000     0.00000000
 C      1   0   0     1.098566461258     0.00000000     0.00000000
 C      2   1   0     1.533005552795   107.62340938     0.00000000
 C      2   1   3     1.530672877724   105.15733455   117.03767684
 O      4   2   1     1.352637778047   115.72133848    92.47875254
 O      4   2   1     1.223274223754   123.50219437   276.19352862
 C      2   1   3     1.525763728924   108.41839138   240.51438383
 C      7   2   1     1.408255813622   120.32570271   358.96093587
 C      8   7   2     1.403606031513   120.51177098   180.64899473
 C      9   8   7     1.398211775841   119.70992143   357.66522722
 C     10   9   8     1.393054423345   120.14832190     2.40693947
 C     11  10   9     1.394715442734   120.12384667   359.20570594
 C      9   8   7     1.487304922536   122.58853406   179.24475891
 O     13   9   8     1.229032689110   118.78621433   145.23984250
 C     13   9   8     1.486506057774   122.11502274   324.17428102
 C     15  13   9     1.400496379895   122.04444038   330.83514153
 C     16  15  13     1.396052437554   120.05485425   179.99449155
 C     17  16  15     1.394632827306   120.09787136     1.27089464
 C     18  17  16     1.394310895998   120.07520224     0.47561130
 C     19  18  17     1.395704735609   119.98834559   359.10278352
 H      3   2   1     1.095867940265   110.89471659    55.31497535
 H      3   2   1     1.095313969326   111.30368068   295.34758165
 H      3   2   1     1.096258223048   111.72730933   174.52150211
 H      5   4   2     0.976568906785   114.95483919     4.12821327
 H      8   7   2     1.088716440769   119.68079471     1.91685859
 H     10   9   8     1.089065990517   120.14231725   182.49583062
 H     11  10   9     1.087976813034   119.74898539   179.68694503
 H     12  11  10     1.089874585170   118.51374391   179.93051835
 H     16  15  13     1.085623018686   121.32409245   358.70268205
 H     17  16  15     1.087563774590   120.04385632   180.51797952
 H     18  17  16     1.087115495474   119.98681805   179.56561602
 H     19  18  17     1.087365251146   120.08750906   178.75711314
 H     20  19  18     1.088707023675   119.57356025   179.27163915

---------------------------
INTERNAL COORDINATES (A.U.)
---------------------------
 H      0   0   0     0.000000000000     0.00000000     0.00000000
 C      1   0   0     2.075989751688     0.00000000     0.00000000
 C      2   1   0     2.896960656563   107.62340938     0.00000000
 C      2   1   3     2.892552539520   105.15733455   117.03767684
 O      4   2   1     2.556114958905   115.72133848    92.47875254
 O      4   2   1     2.311653269579   123.50219437   276.19352862
 C      2   1   3     2.883275592737   108.41839138   240.51438383
 C      7   2   1     2.661217814248   120.32570271   358.96093587
 C      8   7   2     2.652430999480   120.51177098   180.64899473
 C      9   8   7     2.642237333563   119.70992143   357.66522722
 C     10   9   8     2.632491349769   120.14832190     2.40693947
 C     11  10   9     2.635630221518   120.12384667   359.20570594
 C      9   8   7     2.810598981226   122.58853406   179.24475891
 O     13   9   8     2.322535192054   118.78621433   145.23984250
 C     13   9   8     2.809089345609   122.11502274   324.17428102
 C     15  13   9     2.646554609550   122.04444038   330.83514153
 C     16  15  13     2.638156775570   120.05485425   179.99449155
 C     17  16  15     2.635474100985   120.09787136     1.27089464
 C     18  17  16     2.634865738979   120.07520224     0.47561130
 C     19  18  17     2.637499714117   119.98834559   359.10278352
 H      3   2   1     2.070890286045   110.89471659    55.31497535
 H      3   2   1     2.069843432684   111.30368068   295.34758165
 H      3   2   1     2.071627813620   111.72730933   174.52150211
 H      5   4   2     1.845447784727   114.95483919     4.12821327
 H      8   7   2     2.057375910550   119.68079471     1.91685859
 H     10   9   8     2.058036463844   120.14231725   182.49583062
 H     11  10   9     2.055978216691   119.74898539   179.68694503
 H     12  11  10     2.059564486293   118.51374391   179.93051835
 H     16  15  13     2.051530189997   121.32409245   358.70268205
 H     17  16  15     2.055197687148   120.04385632   180.51797952
 H     18  17  16     2.054350562388   119.98681805   179.56561602
 H     19  18  17     2.054822532209   120.08750906   178.75711314
 H     20  19  18     2.057358114823   119.57356025   179.27163915

---------------------
BASIS SET INFORMATION
---------------------
There are 3 groups of distinct atoms

 Group   1 Type H   : 5s1p contracted to 3s1p pattern {311/1}
 Group   2 Type C   : 12s6p1d contracted to 5s4p1d pattern {63111/3111/1}
 Group   3 Type O   : 12s6p1d contracted to 5s4p1d pattern {63111/3111/1}

Atom   0H    basis set group =>   1
Atom   1C    basis set group =>   2
Atom   2C    basis set group =>   2
Atom   3C    basis set group =>   2
Atom   4O    basis set group =>   3
Atom   5O    basis set group =>   3
Atom   6C    basis set group =>   2
Atom   7C    basis set group =>   2
Atom   8C    basis set group =>   2
Atom   9C    basis set group =>   2
Atom  10C    basis set group =>   2
Atom  11C    basis set group =>   2
Atom  12C    basis set group =>   2
Atom  13O    basis set group =>   3
Atom  14C    basis set group =>   2
Atom  15C    basis set group =>   2
Atom  16C    basis set group =>   2
Atom  17C    basis set group =>   2
Atom  18C    basis set group =>   2
Atom  19C    basis set group =>   2
Atom  20H    basis set group =>   1
Atom  21H    basis set group =>   1
Atom  22H    basis set group =>   1
Atom  23H    basis set group =>   1
Atom  24H    basis set group =>   1
Atom  25H    basis set group =>   1
Atom  26H    basis set group =>   1
Atom  27H    basis set group =>   1
Atom  28H    basis set group =>   1
Atom  29H    basis set group =>   1
Atom  30H    basis set group =>   1
Atom  31H    basis set group =>   1
Atom  32H    basis set group =>   1
---------------------------------
AUXILIARY/J BASIS SET INFORMATION
---------------------------------
There are 3 groups of distinct atoms

 Group   1 Type H   : 5s2p1d contracted to 3s1p1d pattern {311/2/1}
 Group   2 Type C   : 12s5p4d2f1g contracted to 6s4p3d1f1g pattern {711111/2111/211/2/1}
 Group   3 Type O   : 12s5p4d2f1g contracted to 6s4p3d1f1g pattern {711111/2111/211/2/1}

Atom   0H    basis set group =>   1
Atom   1C    basis set group =>   2
Atom   2C    basis set group =>   2
Atom   3C    basis set group =>   2
Atom   4O    basis set group =>   3
Atom   5O    basis set group =>   3
Atom   6C    basis set group =>   2
Atom   7C    basis set group =>   2
Atom   8C    basis set group =>   2
Atom   9C    basis set group =>   2
Atom  10C    basis set group =>   2
Atom  11C    basis set group =>   2
Atom  12C    basis set group =>   2
Atom  13O    basis set group =>   3
Atom  14C    basis set group =>   2
Atom  15C    basis set group =>   2
Atom  16C    basis set group =>   2
Atom  17C    basis set group =>   2
Atom  18C    basis set group =>   2
Atom  19C    basis set group =>   2
Atom  20H    basis set group =>   1
Atom  21H    basis set group =>   1
Atom  22H    basis set group =>   1
Atom  23H    basis set group =>   1
Atom  24H    basis set group =>   1
Atom  25H    basis set group =>   1
Atom  26H    basis set group =>   1
Atom  27H    basis set group =>   1
Atom  28H    basis set group =>   1
Atom  29H    basis set group =>   1
Atom  30H    basis set group =>   1
Atom  31H    basis set group =>   1
Atom  32H    basis set group =>   1
------------------------------------------------------------------------------
                             ORCA STARTUP CALCULATIONS
                           -- RI-GTO INTEGRALS CHOSEN --
------------------------------------------------------------------------------
------------------------------------------------------------------------------
                   ___                                                        
                  /   \      - P O W E R E D   B Y -                         
                 /     \                                                     
                 |  |  |   _    _      __       _____    __    __             
                 |  |  |  | |  | |    /  \     |  _  \  |  |  /  |          
                  \  \/   | |  | |   /    \    | | | |  |  | /  /          
                 / \  \   | |__| |  /  /\  \   | |_| |  |  |/  /          
                |  |  |   |  __  | /  /__\  \  |    /   |      \           
                |  |  |   | |  | | |   __   |  |    \   |  |\   \          
                \     /   | |  | | |  |  |  |  | |\  \  |  | \   \       
                 \___/    |_|  |_| |__|  |__|  |_| \__\ |__|  \__/        
                                                                              
                      - O R C A' S   B I G   F R I E N D -                    
                                      &                                       
                       - I N T E G R A L  F E E D E R -                       
                                                                              
 v1 FN, 2020, v2 2021, v3 2022-2024                                           
------------------------------------------------------------------------------


----------------------
SHARK INTEGRAL PACKAGE
----------------------

Number of atoms                             ...     33
Number of basis functions                   ...    502
Number of shells                            ...    246
Maximum angular momentum                    ...      2
Integral batch strategy                     ... SHARK/LIBINT Hybrid
RI-J (if used) integral strategy            ... SPLIT-RIJ (Revised 2003 algorithm where possible)
Printlevel                                  ...      1
Contraction scheme used                     ... SEGMENTED contraction
Prescreening option                         ... SCHWARTZ
   Thresh                                   ... 2.500e-11
   Tcut                                     ... 2.500e-12
   Tpresel                                  ... 2.500e-12 
Coulomb Range Separation                    ... NOT USED
Exchange Range Separation                   ... NOT USED
Multipole approximations                    ... NOT USED
Finite Nucleus Model                        ... NOT USED
CABS basis                                  ... NOT available
Auxiliary Coulomb fitting basis             ... AVAILABLE
   # of basis functions in Aux-J            ...   1085
   # of shells in Aux-J                     ...    355
   Maximum angular momentum in Aux-J        ...      4
Auxiliary J/K fitting basis                 ... NOT available
Auxiliary Correlation fitting basis         ... NOT available
Auxiliary 'external' fitting basis          ... NOT available

Checking pre-screening integrals            ... done (  0.0 sec) Dimension = 246
Check shell pair data                       ... done (  0.0 sec)
Shell pair information
Shell pair cut-off parameter TPreSel        ...   2.5e-12
Total number of shell pairs                 ...     30381
Shell pairs after pre-screening             ...     23558
Total number of primitive shell pairs       ...     99676
Primitive shell pairs kept                  ...     51797
          la=0 lb=0:   7129 shell pairs
          la=1 lb=0:   9763 shell pairs
          la=1 lb=1:   3395 shell pairs
          la=2 lb=0:   1843 shell pairs
          la=2 lb=1:   1300 shell pairs
          la=2 lb=2:    128 shell pairs

Calculating one electron integrals          ... done (  0.1 sec)
Calculating RI/J V-Matrix + Cholesky decomp.... done (  0.0 sec)
Calculating Nuclear repulsion               ... done (  0.0 sec) ENN=   1312.841986003011 Eh

Diagonalization of the overlap matrix:
Smallest eigenvalue                        ... 5.885e-07
Time for diagonalization                   ...    0.015 sec
Threshold for overlap eigenvalues          ... 1.000e-07
Number of eigenvalues below threshold      ... 0

IMPORTANT:
Smallest eigenvalue of S below the DiffSThresh (1.000e-06) while
Thresh>1e-12 and/or TCut>1e-13! In order to avoid SCF convergence issues,
Thresh will be set to at least 1e-12 and TCut to at least 1e-13.
This can be turned off by adding %SCF DiffSThresh -1 END to the input.

Time for construction of square roots      ...    0.011 sec
Total time needed                          ...    0.027 sec

-------------------
DFT GRID GENERATION
-------------------

General Integration Accuracy     IntAcc      ... 4.388
Radial Grid Type                 RadialGrid  ... OptM3 with GC (2021)
Angular Grid (max. ang.)         AngularGrid ... 4 (Lebedev-302)
Angular grid pruning method      GridPruning ... 4 (adaptive)
Weight generation scheme         WeightScheme... mBecke (2022)
Basis function cutoff            BFCut       ... 1.0000e-11
Integration weight cutoff        WCut        ... 1.0000e-14
Partially contracted basis set               ... off
Rotationally invariant grid construction     ... off
Angular grids for H and He will be reduced by one unit
Diffuse basis detected: some atoms will have their outermost
                        angular grid increased by 1.

Total number of grid points                  ...   163139
Total number of batches                      ...     2565
Average number of points per batch           ...       63
Average number of grid points per atom       ...     4944
Initializing property integral containers    ... done (  0.0 sec)

SHARK setup successfully completed in   1.4 seconds

Maximum memory used throughout the entire STARTUP-calculation: 86.0 MB
-------------------------------------------------------------------------------
                                 ORCA GUESS
                   Start orbitals & Density for SCF / CASSCF
-------------------------------------------------------------------------------

------------
SCF SETTINGS
------------
Hamiltonian:
 Density Functional     Method          .... DFT(GTOs)
 Exchange Functional    Exchange        .... PBE
   PBE kappa parameter   XKappa         ....  0.804000
   PBE mue parameter    XMuePBE         ....  0.219520
 Correlation Functional Correlation     .... PBE
   PBE beta parameter  CBetaPBE         ....  0.066725
 LDA part of GGA corr.  LDAOpt          .... PW91-LDA
 Gradients option       PostSCFGGA      .... off
   NL short-range parameter             ....  6.400000
 RI-approximation to the Coulomb term is turned on
   Number of AuxJ basis functions       .... 1085


General Settings:
 Integral files         IntName         .... Dexketoprofen\Dexketoprofen_PBE_6-311+G\Dexketoprofen_PBE_6-311+G.orcainp
 Hartree-Fock type      HFTyp           .... RHF
 Total Charge           Charge          ....    0
 Multiplicity           Mult            ....    1
 Number of Electrons    NEL             ....  134
 Basis Dimension        Dim             ....  502
 Nuclear Repulsion      ENuc            ....   1312.8419860030 Eh

Convergence Acceleration:
 AO-DIIS                CNVDIIS         .... on
   Start iteration      DIISMaxIt       ....    12
   Startup error        DIISStart       ....  0.200000
   # of expansion vecs  DIISMaxEq       ....     5
   Bias factor          DIISBfac        ....   1.050
   Max. coefficient     DIISMaxC        ....  10.000
 MO-DIIS                CNVKDIIS        .... off
 Trust-Rad. Augm. Hess. CNVTRAH         .... auto
   Auto Start mean grad. ratio tolernc. ....  1.125000
   Auto Start start iteration           ....    50
   Auto Start num. interpolation iter.  ....    10
   Max. Number of Micro iterations      ....    24
   Max. Number of Macro iterations      .... Maxiter - #DIIS iter
   Number of Davidson start vectors     ....     2
   Converg. threshold    (grad. norm)   ....   1.000e-05
   Grad. Scal. Fac. for Micro threshold ....   0.100
   Minimum threshold for Micro iter.    ....   1.000e-02
   NR start threshold (gradient norm)   ....   1.000e-04
   Initial trust radius                 ....   0.400
   Minimum AH scaling param. (alpha)    ....   1.000
   Maximum AH scaling param. (alpha)    .... 1000.000
   Quad. conv. algorithm                .... NR
   White noise on init. David. guess    .... on
   Maximum white noise                  ....   0.010
   Pseudo random numbers                .... off
   Inactive MOs                         .... canonical
   Orbital update algorithm             .... Taylor
   Preconditioner                       .... Diag
   Full preconditioner red. dimension   ....   250
 SOSCF                  CNVSOSCF        .... on
   Start iteration      SOSCFMaxIt      ....   150
   Startup grad/error   SOSCFStart      ....  0.003300
   Hessian update       SOSCFHessUp     .... L-BFGS
 Level Shifting         CNVShift        .... on
   Level shift para.    LevelShift      ....    0.2500
   Turn off err/grad.   ShiftErr        ....    0.0010
 Zerner damping         CNVZerner       .... off
 Static damping         CNVDamp         .... on
   Fraction old density DampFac         ....    0.7000
   Max. Damping (<1)    DampMax         ....    0.9800
   Min. Damping (>=0)   DampMin         ....    0.0000
   Turn off err/grad.   DampErr         ....    0.1000

SCF Procedure:
 Maximum # iterations   MaxIter         ....   125
 SCF integral mode      SCFMode         .... Direct
   Integral package                     .... SHARK and LIBINT hybrid scheme
 Reset frequency        DirectResetFreq ....    20
 Integral Threshold     Thresh          ....  1.000e-12 Eh
 Primitive CutOff       TCut            ....  1.000e-13 Eh

Convergence Tolerance:
 Convergence Check Mode ConvCheckMode   .... Total+1el-Energy
 Convergence forced     ConvForced      .... 0
 Energy Change          TolE            ....  1.000e-08 Eh
 1-El. energy change                    ....  1.000e-05 Eh
 Orbital Gradient       TolG            ....  1.000e-05
 Orbital Rotation angle TolX            ....  1.000e-05
 DIIS Error             TolErr          ....  5.000e-07

------------------------------
INITIAL GUESS: MODEL POTENTIAL
------------------------------
Loading Hartree-Fock densities                     ... done
Calculating cut-offs                               ... done
Initializing the effective Hamiltonian             ... done
Setting up the integral package (SHARK)            ... done
Starting the Coulomb interaction                   ... done (   0.6 sec)
Making the grid                                    ... done (   0.4 sec)
Mapping shells                                     ... done
Starting the XC term evaluation                    ... done (   0.9 sec)
  promolecular density results
     # of electrons  =    133.983021590
     EX              =   -110.373772909
     EC              =     -4.477122640
     EX+EC           =   -114.850895549
Transforming the Hamiltonian                       ... done (   0.0 sec)
Diagonalizing the Hamiltonian                      ... done (   0.0 sec)
Back transforming the eigenvectors                 ... done (   0.0 sec)
Now organizing SCF variables                       ... done
                      ------------------
                      INITIAL GUESS DONE (   2.0 sec)
                      ------------------
             **** ENERGY FILE WAS UPDATED (Dexketoprofen\Dexketoprofen_PBE_6-311+G\Dexketoprofen_PBE_6-311+G.orcainp.en.tmp) ****
Finished Guess after   2.1 sec
Maximum memory used throughout the entire GUESS-calculation: 54.7 MB

-------------------------------------------------------------------------------------------
                                      ORCA LEAN-SCF
                              memory conserving SCF solver
-------------------------------------------------------------------------------------------

--------------------
CPCM SOLVATION MODEL
--------------------
CPCM parameters:
  Epsilon                                         ...      80.1510
  Refrac                                          ...       1.3328
  Rsolv                                           ...       1.3000
  Surface type                                    ... GAUSSIAN VDW
  Discretization scheme                           ... Constant charge density
    Threshold for H atoms                         ...       5.0000 (charges/Ang^2)
    Threshold for non-H atoms                     ...       5.0000 (charges/Ang^2)
  Epsilon function type                           ...         CPCM
Solvent:                                          ... WATER
Radii:
  Scheme                                          ... Element-dependent radii
  Radius for H  used is    2.4944 Bohr (=   1.3200 Ang.)
  Radius for C  used is    3.8550 Bohr (=   2.0400 Ang.)
  Radius for O  used is    3.4469 Bohr (=   1.8240 Ang.)
Calculating surface                               ...        done! (  0.0s)
Cavity surface points                             ...         2957
Cavity Volume                                     ...    2100.0638
Cavity Surface-area                               ...    1086.2172
Calculating surface distance matrix               ...        done! (  0.0s)
Performing Cholesky decomposition & store         ...        done! (  0.2s)
Overall time for CPCM initialization              ...                 0.2s

----------------------------------------D-I-I-S--------------------------------------------
Iteration    Energy (Eh)           Delta-E    RMSDP     MaxDP     DIISErr   Damp  Time(sec)
-------------------------------------------------------------------------------------------
               ***  Starting incremental Fock matrix formation  ***
    1    -842.6201879667846697     0.00e+00  1.28e-02  1.31e+00  2.90e-01  0.700   6.4
Warning: op=0 Small HOMO/LUMO gap (   0.095) - skipping pre-diagonalization
         Will do a full diagonalization
    2    -842.8332974738736993    -2.13e-01  1.15e-02  1.06e+00  8.22e-02  0.700   6.2
                               ***Turning on AO-DIIS***
    3    -842.9037449835705047    -7.04e-02  6.17e-03  7.13e-01  2.21e-02  0.700   5.8
    4    -842.9475432950393952    -4.38e-02  1.05e-02  1.91e+00  1.11e-02  0.000   5.9
    5    -843.0467225118763963    -9.92e-02  3.08e-03  3.45e-01  6.26e-03  0.000   5.7
                              *** Initializing SOSCF ***
---------------------------------------S-O-S-C-F--------------------------------------
Iteration    Energy (Eh)           Delta-E    RMSDP     MaxDP     MaxGrad    Time(sec)
--------------------------------------------------------------------------------------
    6    -843.0476147724434668    -8.92e-04  1.19e-03  1.06e-01  2.26e-03     5.7
               *** Restarting incremental Fock matrix formation ***
    7    -843.0476902061445799    -7.54e-05  9.89e-04  9.63e-02  4.85e-04     6.3
    8    -843.0476584686980459     3.17e-05  4.39e-04  8.09e-02  1.31e-03     5.1
    9    -843.0477040280188703    -4.56e-05  2.96e-04  2.47e-02  1.70e-04     5.0
   10    -843.0477014435150522     2.58e-06  2.00e-04  3.41e-02  2.04e-04     5.0
   11    -843.0477061362344102    -4.69e-06  1.08e-04  1.06e-02  7.70e-05     5.1
   12    -843.0477054216839861     7.15e-07  7.73e-05  8.65e-03  9.82e-05     4.8
   13    -843.0477065123236571    -1.09e-06  5.09e-05  7.23e-03  1.16e-05     4.7
   14    -843.0477064561941916     5.61e-08  3.05e-05  5.37e-03  3.19e-05     4.4
   15    -843.0477065416152982    -8.54e-08  8.75e-05  1.64e-02  5.42e-06     4.2
   16    -843.0477065236509588     1.80e-08  2.35e-05  2.82e-03  1.02e-05     4.3
   17    -843.0477065352279169    -1.16e-08  5.95e-05  5.02e-03  8.73e-07     4.0
                  *** Gradient check signals convergence ***

               *****************************************************
               *                     SUCCESS                       *
               *           SCF CONVERGED AFTER  17 CYCLES          *
               *****************************************************

             **** ENERGY FILE WAS UPDATED (Dexketoprofen\Dexketoprofen_PBE_6-311+G\Dexketoprofen_PBE_6-311+G.orcainp.en.tmp) ****

----------------
TOTAL SCF ENERGY
----------------

Total Energy       :       -843.04770653522792 Eh          -22940.49437 eV

Components:
Nuclear Repulsion  :       1312.84198600301079 Eh           35724.24662 eV
Electronic Energy  :      -2155.85966937242756 Eh          -58663.92402 eV
One Electron Energy:      -3751.45785439091196 Eh         -102082.35798 eV
Two Electron Energy:       1595.59818501848417 Eh           43418.43396 eV
CPCM Dielectric    :         -0.03002316581093 Eh              -0.81697 eV

Virial components:
Potential Energy   :      -1683.32437310020759 Eh          -45805.58490 eV
Kinetic Energy     :        840.27666656497968 Eh           22865.09054 eV
Virial Ratio       :          2.00329777093725

DFT components:
N(Alpha)           :       67.000000324322 electrons
N(Beta)            :       67.000000324322 electrons
N(Total)           :      134.000000648645 electrons
E(X)               :     -112.380885880597 Eh       
E(C)               :       -4.476103395383 Eh       
E(XC)              :     -116.856989275980 Eh       

CPCM Solvation Model Properties:
Surface-charge          :         -0.03376268097564
Corrected charge        :          0.00000000000000
Outlying charge corr.   :          0.00006332401094 Eh               0.00172 eV
Free-energy (cav+disp)  :  This term is not implemented in the current solvation scheme

---------------
SCF CONVERGENCE
---------------

  Last Energy change         ...    1.1577e-08  Tolerance :   1.0000e-08
  Last MAX-Density change    ...    5.0207e-03  Tolerance :   1.0000e-07
  Last RMS-Density change    ...    5.9535e-05  Tolerance :   5.0000e-09
  Last DIIS Error            ...    2.2599e-03  Tolerance :   5.0000e-07
  Last Orbital Gradient      ...    8.7255e-07  Tolerance :   1.0000e-05
  Last Orbital Rotation      ...    2.8123e-06  Tolerance :   1.0000e-05


----------------
ORBITAL ENERGIES
----------------

  NO   OCC          E(Eh)            E(eV) 
   0   2.0000     -18.801459      -511.6137 
   1   2.0000     -18.748765      -510.1798 
   2   2.0000     -18.743433      -510.0347 
   3   2.0000     -10.022416      -272.7238 
   4   2.0000      -9.977165      -271.4925 
   5   2.0000      -9.916509      -269.8419 
   6   2.0000      -9.914787      -269.7951 
   7   2.0000      -9.908744      -269.6306 
   8   2.0000      -9.906325      -269.5648 
   9   2.0000      -9.905305      -269.5370 
  10   2.0000      -9.901830      -269.4425 
  11   2.0000      -9.900116      -269.3958 
  12   2.0000      -9.899776      -269.3866 
  13   2.0000      -9.898426      -269.3499 
  14   2.0000      -9.897653      -269.3288 
  15   2.0000      -9.896892      -269.3081 
  16   2.0000      -9.894696      -269.2484 
  17   2.0000      -9.894652      -269.2472 
  18   2.0000      -9.876125      -268.7430 
  19   2.0000      -1.021928       -27.8081 
  20   2.0000      -0.965783       -26.2803 
  21   2.0000      -0.944951       -25.7134 
  22   2.0000      -0.804067       -21.8798 
  23   2.0000      -0.794635       -21.6231 
  24   2.0000      -0.743645       -20.2356 
  25   2.0000      -0.712975       -19.4010 
  26   2.0000      -0.691973       -18.8295 
  27   2.0000      -0.687084       -18.6965 
  28   2.0000      -0.674933       -18.3659 
  29   2.0000      -0.605646       -16.4805 
  30   2.0000      -0.600255       -16.3338 
  31   2.0000      -0.572171       -15.5696 
  32   2.0000      -0.567605       -15.4453 
  33   2.0000      -0.557148       -15.1608 
  34   2.0000      -0.544794       -14.8246 
  35   2.0000      -0.511700       -13.9241 
  36   2.0000      -0.489323       -13.3152 
  37   2.0000      -0.463728       -12.6187 
  38   2.0000      -0.455987       -12.4080 
  39   2.0000      -0.437345       -11.9008 
  40   2.0000      -0.428330       -11.6555 
  41   2.0000      -0.420273       -11.4362 
  42   2.0000      -0.417985       -11.3740 
  43   2.0000      -0.411644       -11.2014 
  44   2.0000      -0.399875       -10.8812 
  45   2.0000      -0.395065       -10.7503 
  46   2.0000      -0.387029       -10.5316 
  47   2.0000      -0.385197       -10.4817 
  48   2.0000      -0.383823       -10.4444 
  49   2.0000      -0.369812       -10.0631 
  50   2.0000      -0.366678        -9.9778 
  51   2.0000      -0.354918        -9.6578 
  52   2.0000      -0.341471        -9.2919 
  53   2.0000      -0.331970        -9.0334 
  54   2.0000      -0.329333        -8.9616 
  55   2.0000      -0.321475        -8.7478 
  56   2.0000      -0.318029        -8.6540 
  57   2.0000      -0.315809        -8.5936 
  58   2.0000      -0.308697        -8.4001 
  59   2.0000      -0.304505        -8.2860 
  60   2.0000      -0.292352        -7.9553 
  61   2.0000      -0.258047        -7.0218 
  62   2.0000      -0.249096        -6.7782 
  63   2.0000      -0.246803        -6.7159 
  64   2.0000      -0.242871        -6.6089 
  65   2.0000      -0.235424        -6.4062 
  66   2.0000      -0.220073        -5.9885 
  67   0.0000      -0.109664        -2.9841 
  68   0.0000      -0.063915        -1.7392 
  69   0.0000      -0.061112        -1.6629 
  70   0.0000      -0.053262        -1.4493 
  71   0.0000      -0.048765        -1.3270 
  72   0.0000      -0.017288        -0.4704 
  73   0.0000      -0.005802        -0.1579 
  74   0.0000       0.000553         0.0151 
  75   0.0000       0.005108         0.1390 
  76   0.0000       0.009811         0.2670 
  77   0.0000       0.016432         0.4471 
*Only the first 10 virtual orbitals were printed.

                    ********************************
                    * MULLIKEN POPULATION ANALYSIS *
                    ********************************

-----------------------
MULLIKEN ATOMIC CHARGES
-----------------------
   0 H :    0.231360
   1 C :    0.031276
   2 C :   -0.694747
   3 C :   -0.054600
   4 O :   -0.196805
   5 O :   -0.317785
   6 C :    1.526845
   7 C :   -2.400978
   8 C :    1.674987
   9 C :    0.335764
  10 C :   -0.289397
  11 C :   -0.846428
  12 C :   -1.247988
  13 O :   -0.228915
  14 C :    1.686294
  15 C :   -1.144097
  16 C :   -0.389169
  17 C :   -0.172877
  18 C :   -0.242146
  19 C :    0.228471
  20 H :    0.190860
  21 H :    0.183195
  22 H :    0.197334
  23 H :    0.348776
  24 H :    0.183672
  25 H :    0.172251
  26 H :    0.176013
  27 H :    0.185000
  28 H :    0.189832
  29 H :    0.170824
  30 H :    0.173299
  31 H :    0.172319
  32 H :    0.167560
Sum of atomic charges:    0.0000000

--------------------------------
MULLIKEN REDUCED ORBITAL CHARGES
--------------------------------
  0 H s       :     0.746372  s :     0.746372
      pz      :     0.005389  p :     0.022267
      px      :     0.012340
      py      :     0.004539

  1 C s       :     3.071054  s :     3.071054
      pz      :     0.802405  p :     2.832828
      px      :     1.037711
      py      :     0.992713
      dz2     :     0.011881  d :     0.064842
      dxz     :     0.012550
      dyz     :     0.017317
      dx2y2   :     0.013115
      dxy     :     0.009979

  2 C s       :     3.516486  s :     3.516486
      pz      :     0.930882  p :     3.137476
      px      :     1.113168
      py      :     1.093426
      dz2     :     0.008807  d :     0.040784
      dxz     :     0.008513
      dyz     :     0.008909
      dx2y2   :     0.007103
      dxy     :     0.007452

  3 C s       :     3.370876  s :     3.370876
      pz      :     0.851872  p :     2.492018
      px      :     0.825460
      py      :     0.814687
      dz2     :     0.028521  d :     0.191706
      dxz     :     0.014865
      dyz     :     0.070883
      dx2y2   :     0.027777
      dxy     :     0.049659

  4 O s       :     3.694317  s :     3.694317
      pz      :     1.514143  p :     4.490793
      px      :     1.651654
      py      :     1.324997
      dz2     :     0.003164  d :     0.011695
      dxz     :     0.002651
      dyz     :     0.002112
      dx2y2   :     0.002929
      dxy     :     0.000839

  5 O s       :     3.882363  s :     3.882363
      pz      :     1.680056  p :     4.420514
      px      :     1.500938
      py      :     1.239519
      dz2     :     0.001875  d :     0.014909
      dxz     :     0.000039
      dyz     :     0.003556
      dx2y2   :     0.005373
      dxy     :     0.004065

  6 C s       :     1.627212  s :     1.627212
      pz      :     1.032292  p :     2.777565
      px      :     0.996838
      py      :     0.748435
      dz2     :     0.005703  d :     0.068377
      dxz     :     0.009338
      dyz     :     0.010746
      dx2y2   :     0.021399
      dxy     :     0.021191

  7 C s       :     4.556755  s :     4.556755
      pz      :     1.026475  p :     3.790668
      px      :     1.159256
      py      :     1.604937
      dz2     :     0.003821  d :     0.053555
      dxz     :     0.004609
      dyz     :     0.010805
      dx2y2   :     0.019565
      dxy     :     0.014757

  8 C s       :     1.981144  s :     1.981144
      pz      :     0.824778  p :     2.278124
      px      :     0.163382
      py      :     1.289964
      dz2     :     0.005661  d :     0.065745
      dxz     :     0.008785
      dyz     :     0.010224
      dx2y2   :     0.018621
      dxy     :     0.022455

  9 C s       :     3.024978  s :     3.024978
      pz      :     0.919235  p :     2.584128
      px      :     0.707282
      py      :     0.957610
      dz2     :     0.005466  d :     0.055130
      dxz     :     0.008787
      dyz     :     0.006377
      dx2y2   :     0.018080
      dxy     :     0.016419

 10 C s       :     3.442081  s :     3.442081
      pz      :     0.957143  p :     2.792273
      px      :     0.932624
      py      :     0.902506
      dz2     :     0.003767  d :     0.055043
      dxz     :     0.005178
      dyz     :     0.010570
      dx2y2   :     0.020007
      dxy     :     0.015521

 11 C s       :     3.586742  s :     3.586742
      pz      :     0.980966  p :     3.205525
      px      :     1.211265
      py      :     1.013295
      dz2     :     0.004801  d :     0.054161
      dxz     :     0.007142
      dyz     :     0.007635
      dx2y2   :     0.015119
      dxy     :     0.019463

 12 C s       :     3.847653  s :     3.847653
      pz      :     0.940225  p :     3.259553
      px      :     1.333672
      py      :     0.985656
      dz2     :     0.031578  d :     0.140783
      dxz     :     0.020002
      dyz     :     0.028424
      dx2y2   :     0.028559
      dxy     :     0.032220

 13 O s       :     3.863465  s :     3.863465
      pz      :     1.447737  p :     4.350948
      px      :     1.517532
      py      :     1.385679
      dz2     :     0.002432  d :     0.014502
      dxz     :     0.001261
      dyz     :     0.004868
      dx2y2   :     0.003089
      dxy     :     0.002852

 14 C s       :     2.183657  s :     2.183657
      pz      :     0.920769  p :     2.064121
      px      :     0.291042
      py      :     0.852310
      dz2     :     0.013801  d :     0.065929
      dxz     :     0.018319
      dyz     :     0.011669
      dx2y2   :     0.012038
      dxy     :     0.010102

 15 C s       :     3.565328  s :     3.565328
      pz      :     1.345215  p :     3.523741
      px      :     1.144057
      py      :     1.034470
      dz2     :     0.015859  d :     0.055028
      dxz     :     0.012251
      dyz     :     0.010754
      dx2y2   :     0.005907
      dxy     :     0.010256

 16 C s       :     3.395074  s :     3.395074
      pz      :     1.022025  p :     2.939353
      px      :     0.941471
      py      :     0.975857
      dz2     :     0.011328  d :     0.054743
      dxz     :     0.011931
      dyz     :     0.011396
      dx2y2   :     0.010787
      dxy     :     0.009301

 17 C s       :     3.239184  s :     3.239184
      pz      :     0.970348  p :     2.878110
      px      :     0.987172
      py      :     0.920591
      dz2     :     0.010869  d :     0.055583
      dxz     :     0.015523
      dyz     :     0.009697
      dx2y2   :     0.010869
      dxy     :     0.008624

 18 C s       :     3.383973  s :     3.383973
      pz      :     0.857759  p :     2.803311
      px      :     0.958857
      py      :     0.986696
      dz2     :     0.015762  d :     0.054862
      dxz     :     0.012126
      dyz     :     0.010414
      dx2y2   :     0.006066
      dxy     :     0.010494

 19 C s       :     3.152162  s :     3.152162
      pz      :     0.892688  p :     2.564639
      px      :     0.727579
      py      :     0.944373
      dz2     :     0.011202  d :     0.054729
      dxz     :     0.010999
      dyz     :     0.011937
      dx2y2   :     0.010855
      dxy     :     0.009736

 20 H s       :     0.786491  s :     0.786491
      pz      :     0.004942  p :     0.022648
      px      :     0.006805
      py      :     0.010901

 21 H s       :     0.794384  s :     0.794384
      pz      :     0.008595  p :     0.022421
      px      :     0.006808
      py      :     0.007018

 22 H s       :     0.780317  s :     0.780317
      pz      :     0.005553  p :     0.022349
      px      :     0.011220
      py      :     0.005575

 23 H s       :     0.587199  s :     0.587199
      pz      :     0.015452  p :     0.064025
      px      :     0.016770
      py      :     0.031803

 24 H s       :     0.790993  s :     0.790993
      pz      :     0.006787  p :     0.025335
      px      :     0.013914
      py      :     0.004634

 25 H s       :     0.802748  s :     0.802748
      pz      :     0.005641  p :     0.025001
      px      :     0.005923
      py      :     0.013438

 26 H s       :     0.799269  s :     0.799269
      pz      :     0.006775  p :     0.024718
      px      :     0.013340
      py      :     0.004603

 27 H s       :     0.790200  s :     0.790200
      pz      :     0.006073  p :     0.024800
      px      :     0.007988
      py      :     0.010739

 28 H s       :     0.785064  s :     0.785064
      pz      :     0.004923  p :     0.025104
      px      :     0.011037
      py      :     0.009144

 29 H s       :     0.804479  s :     0.804479
      pz      :     0.011387  p :     0.024697
      px      :     0.004940
      py      :     0.008369

 30 H s       :     0.802135  s :     0.802135
      pz      :     0.010132  p :     0.024566
      px      :     0.009311
      py      :     0.005122

 31 H s       :     0.803007  s :     0.803007
      pz      :     0.004761  p :     0.024673
      px      :     0.010619
      py      :     0.009293

 32 H s       :     0.807326  s :     0.807326
      pz      :     0.011486  p :     0.025114
      px      :     0.005151
      py      :     0.008477



                     *******************************
                     * LOEWDIN POPULATION ANALYSIS *
                     *******************************

----------------------
LOEWDIN ATOMIC CHARGES
----------------------
   0 H :    0.124671
   1 C :   -0.122920
   2 C :   -0.097965
   3 C :   -0.016491
   4 O :   -0.036001
   5 O :   -0.205755
   6 C :   -0.122537
   7 C :   -0.030223
   8 C :   -0.104602
   9 C :   -0.021755
  10 C :   -0.048043
  11 C :   -0.042015
  12 C :   -0.000371
  13 O :   -0.200343
  14 C :   -0.114535
  15 C :   -0.040665
  16 C :   -0.062346
  17 C :   -0.050661
  18 C :   -0.062178
  19 C :   -0.027554
  20 H :    0.077313
  21 H :    0.080174
  22 H :    0.083901
  23 H :    0.154311
  24 H :    0.113952
  25 H :    0.103271
  26 H :    0.091156
  27 H :    0.106678
  28 H :    0.103937
  29 H :    0.088921
  30 H :    0.088362
  31 H :    0.088476
  32 H :    0.101838

-------------------------------
LOEWDIN REDUCED ORBITAL CHARGES
-------------------------------
  0 H s       :     0.802620  s :     0.802620
      pz      :     0.017371  p :     0.072709
      px      :     0.042075
      py      :     0.013263

  1 C s       :     2.780931  s :     2.780931
      pz      :     1.062144  p :     3.193190
      px      :     1.077629
      py      :     1.053417
      dz2     :     0.028153  d :     0.148799
      dxz     :     0.026078
      dyz     :     0.041264
      dx2y2   :     0.029359
      dxy     :     0.023946

  2 C s       :     2.794311  s :     2.794311
      pz      :     1.037448  p :     3.212433
      px      :     1.097857
      py      :     1.077128
      dz2     :     0.021214  d :     0.091221
      dxz     :     0.017976
      dyz     :     0.022214
      dx2y2   :     0.014598
      dxy     :     0.015220

  3 C s       :     2.778364  s :     2.778364
      pz      :     0.941885  p :     2.826945
      px      :     0.829590
      py      :     1.055470
      dz2     :     0.063306  d :     0.411182
      dxz     :     0.035399
      dyz     :     0.144058
      dx2y2   :     0.073047
      dxy     :     0.095371

  4 O s       :     3.387296  s :     3.387296
      pz      :     1.606144  p :     4.630234
      px      :     1.667364
      py      :     1.356726
      dz2     :     0.004546  d :     0.018472
      dxz     :     0.004190
      dyz     :     0.003762
      dx2y2   :     0.004474
      dxy     :     0.001499

  5 O s       :     3.511007  s :     3.511007
      pz      :     1.674903  p :     4.671951
      px      :     1.512101
      py      :     1.484947
      dz2     :     0.003493  d :     0.022797
      dxz     :     0.000036
      dyz     :     0.004422
      dx2y2   :     0.010268
      dxy     :     0.004578

  6 C s       :     2.789500  s :     2.789500
      pz      :     0.979662  p :     3.172118
      px      :     1.110586
      py      :     1.081870
      dz2     :     0.013139  d :     0.160919
      dxz     :     0.021024
      dyz     :     0.022231
      dx2y2   :     0.052321
      dxy     :     0.052204

  7 C s       :     2.781986  s :     2.781986
      pz      :     0.959999  p :     3.119069
      px      :     1.065128
      py      :     1.093943
      dz2     :     0.008862  d :     0.129168
      dxz     :     0.008809
      dyz     :     0.023229
      dx2y2   :     0.048065
      dxy     :     0.040204

  8 C s       :     2.775844  s :     2.775844
      pz      :     0.984603  p :     3.169240
      px      :     1.094997
      py      :     1.089639
      dz2     :     0.013860  d :     0.159519
      dxz     :     0.020211
      dyz     :     0.022031
      dx2y2   :     0.048001
      dxy     :     0.055416

  9 C s       :     2.786947  s :     2.786947
      pz      :     0.939731  p :     3.104378
      px      :     1.077109
      py      :     1.087538
      dz2     :     0.011455  d :     0.130431
      dxz     :     0.020151
      dyz     :     0.012953
      dx2y2   :     0.044349
      dxy     :     0.041523

 10 C s       :     2.794961  s :     2.794961
      pz      :     0.955378  p :     3.122933
      px      :     1.056297
      py      :     1.111258
      dz2     :     0.008671  d :     0.130150
      dxz     :     0.009517
      dyz     :     0.022872
      dx2y2   :     0.047929
      dxy     :     0.041161

 11 C s       :     2.788002  s :     2.788002
      pz      :     0.950630  p :     3.124180
      px      :     1.075140
      py      :     1.098411
      dz2     :     0.010570  d :     0.129833
      dxz     :     0.016544
      dyz     :     0.015518
      dx2y2   :     0.040238
      dxy     :     0.046963

 12 C s       :     2.782685  s :     2.782685
      pz      :     0.948954  p :     2.905377
      px      :     0.916736
      py      :     1.039687
      dz2     :     0.061920  d :     0.312309
      dxz     :     0.043734
      dyz     :     0.072791
      dx2y2   :     0.066929
      dxy     :     0.066935

 13 O s       :     3.506608  s :     3.506608
      pz      :     1.543046  p :     4.671024
      px      :     1.566591
      py      :     1.561387
      dz2     :     0.003063  d :     0.022712
      dxz     :     0.001777
      dyz     :     0.008727
      dx2y2   :     0.005496
      dxy     :     0.003648

 14 C s       :     2.776419  s :     2.776419
      pz      :     1.069319  p :     3.178122
      px      :     1.054688
      py      :     1.054114
      dz2     :     0.033380  d :     0.159995
      dxz     :     0.043634
      dyz     :     0.030092
      dx2y2   :     0.026315
      dxy     :     0.026574

 15 C s       :     2.787146  s :     2.787146
      pz      :     1.083572  p :     3.123180
      px      :     1.044965
      py      :     0.994643
      dz2     :     0.037206  d :     0.130338
      dxz     :     0.032249
      dyz     :     0.026747
      dx2y2   :     0.012991
      dxy     :     0.021146

 16 C s       :     2.798093  s :     2.798093
      pz      :     1.052593  p :     3.134968
      px      :     1.065351
      py      :     1.017024
      dz2     :     0.026476  d :     0.129285
      dxz     :     0.030961
      dyz     :     0.023807
      dx2y2   :     0.023745
      dxy     :     0.024295

 17 C s       :     2.801227  s :     2.801227
      pz      :     1.055491  p :     3.118799
      px      :     1.040424
      py      :     1.022885
      dz2     :     0.026312  d :     0.130635
      dxz     :     0.033440
      dyz     :     0.024953
      dx2y2   :     0.023306
      dxy     :     0.022624

 18 C s       :     2.798372  s :     2.798372
      pz      :     1.081688  p :     3.134309
      px      :     1.037500
      py      :     1.015121
      dz2     :     0.036725  d :     0.129498
      dxz     :     0.031349
      dyz     :     0.026628
      dx2y2   :     0.013291
      dxy     :     0.021505

 19 C s       :     2.789432  s :     2.789432
      pz      :     1.059146  p :     3.108743
      px      :     1.052991
      py      :     0.996605
      dz2     :     0.026004  d :     0.129379
      dxz     :     0.029085
      dyz     :     0.025279
      dx2y2   :     0.023972
      dxy     :     0.025039

 20 H s       :     0.851932  s :     0.851932
      pz      :     0.013616  p :     0.070754
      px      :     0.020282
      py      :     0.036856

 21 H s       :     0.849862  s :     0.849862
      pz      :     0.027644  p :     0.069964
      px      :     0.020326
      py      :     0.021994

 22 H s       :     0.845656  s :     0.845656
      pz      :     0.016362  p :     0.070443
      px      :     0.038855
      py      :     0.015226

 23 H s       :     0.660577  s :     0.660577
      pz      :     0.036853  p :     0.185112
      px      :     0.040101
      py      :     0.108158

 24 H s       :     0.813075  s :     0.813075
      pz      :     0.017095  p :     0.072973
      px      :     0.043496
      py      :     0.012382

 25 H s       :     0.824371  s :     0.824371
      pz      :     0.014044  p :     0.072358
      px      :     0.016710
      py      :     0.041604

 26 H s       :     0.837790  s :     0.837790
      pz      :     0.017515  p :     0.071053
      px      :     0.040922
      py      :     0.012617

 27 H s       :     0.821698  s :     0.821698
      pz      :     0.015080  p :     0.071623
      px      :     0.023702
      py      :     0.032842

 28 H s       :     0.822769  s :     0.822769
      pz      :     0.013494  p :     0.073294
      px      :     0.033687
      py      :     0.026113

 29 H s       :     0.839822  s :     0.839822
      pz      :     0.034479  p :     0.071256
      px      :     0.013091
      py      :     0.023686

 30 H s       :     0.840438  s :     0.840438
      pz      :     0.030484  p :     0.071199
      px      :     0.027491
      py      :     0.013225

 31 H s       :     0.840299  s :     0.840299
      pz      :     0.012797  p :     0.071225
      px      :     0.031634
      py      :     0.026794

 32 H s       :     0.825690  s :     0.825690
      pz      :     0.034824  p :     0.072473
      px      :     0.013256
      py      :     0.024392



                      *****************************
                      * MAYER POPULATION ANALYSIS *
                      *****************************

  NA   - Mulliken gross atomic population
  ZA   - Total nuclear charge
  QA   - Mulliken gross atomic charge
  VA   - Mayer's total valence
  BVA  - Mayer's bonded valence
  FA   - Mayer's free valence

  ATOM       NA         ZA         QA         VA         BVA        FA
  0 H      0.7686     1.0000     0.2314     0.9431     0.9431    -0.0000
  1 C      5.9687     6.0000     0.0313     2.7501     2.7501    -0.0000
  2 C      6.6947     6.0000    -0.6947     3.6349     3.6349    -0.0000
  3 C      6.0546     6.0000    -0.0546     4.1167     4.1167    -0.0000
  4 O      8.1968     8.0000    -0.1968     2.0967     2.0967    -0.0000
  5 O      8.3178     8.0000    -0.3178     1.9695     1.9695    -0.0000
  6 C      4.4732     6.0000     1.5268     0.8498     0.8498     0.0000
  7 C      8.4010     6.0000    -2.4010     6.8018     6.8018    -0.0000
  8 C      4.3250     6.0000     1.6750     0.1554     0.1554     0.0000
  9 C      5.6642     6.0000     0.3358     2.5598     2.5598    -0.0000
 10 C      6.2894     6.0000    -0.2894     2.9922     2.9922     0.0000
 11 C      6.8464     6.0000    -0.8464     4.5118     4.5118    -0.0000
[...]
      dxy     :     0.040455

 11 C s       :     2.790863  s :     2.790863
      pz      :     0.950397  p :     3.117419
      px      :     1.072431
      py      :     1.094590
      dz2     :     0.010675  d :     0.127833
      dxz     :     0.016799
      dyz     :     0.015536
      dx2y2   :     0.039735
      dxy     :     0.045088

 12 C s       :     2.788326  s :     2.788326
      pz      :     0.936727  p :     2.898603
      px      :     0.932512
      py      :     1.029363
      dz2     :     0.058179  d :     0.305044
      dxz     :     0.044333
      dyz     :     0.069226
      dx2y2   :     0.065286
      dxy     :     0.068021

 13 O s       :     3.516910  s :     3.516910
      pz      :     1.528469  p :     4.669946
      px      :     1.590728
      py      :     1.550749
      dz2     :     0.002937  d :     0.021990
      dxz     :     0.001724
      dyz     :     0.008606
      dx2y2   :     0.005267
      dxy     :     0.003457

 14 C s       :     2.783596  s :     2.783596
      pz      :     1.069673  p :     3.175860
      px      :     1.062547
      py      :     1.043640
      dz2     :     0.032444  d :     0.155708
      dxz     :     0.044991
      dyz     :     0.026979
      dx2y2   :     0.025565
      dxy     :     0.025729

 15 C s       :     2.792589  s :     2.792589
      pz      :     1.086200  p :     3.122823
      px      :     1.048566
      py      :     0.988058
      dz2     :     0.037676  d :     0.128225
      dxz     :     0.032362
      dyz     :     0.026200
      dx2y2   :     0.012486
      dxy     :     0.019502

 16 C s       :     2.802134  s :     2.802134
      pz      :     1.056864  p :     3.134906
      px      :     1.070888
      py      :     1.007155
      dz2     :     0.027444  d :     0.127401
      dxz     :     0.032757
      dyz     :     0.021430
      dx2y2   :     0.022563
      dxy     :     0.023207

 17 C s       :     2.806932  s :     2.806932
      pz      :     1.061104  p :     3.115880
      px      :     1.049023
      py      :     1.005752
      dz2     :     0.027008  d :     0.127653
      dxz     :     0.035550
      dyz     :     0.022712
      dx2y2   :     0.021491
      dxy     :     0.020892

 18 C s       :     2.802610  s :     2.802610
      pz      :     1.085495  p :     3.133948
      px      :     1.045506
      py      :     1.002947
      dz2     :     0.037264  d :     0.127591
      dxz     :     0.033211
      dyz     :     0.024934
      dx2y2   :     0.012866
      dxy     :     0.019315

 19 C s       :     2.793803  s :     2.793803
      pz      :     1.061866  p :     3.108653
      px      :     1.061965
      py      :     0.984822
      dz2     :     0.027380  d :     0.127818
      dxz     :     0.030636
      dyz     :     0.022043
      dx2y2   :     0.023078
      dxy     :     0.024681

 20 H s       :     0.851202  s :     0.851202
      pz      :     0.013483  p :     0.069652
      px      :     0.019053
      py      :     0.037116

 21 H s       :     0.848810  s :     0.848810
      pz      :     0.022122  p :     0.069262
      px      :     0.023847
      py      :     0.023292

 22 H s       :     0.844233  s :     0.844233
      pz      :     0.020327  p :     0.069617
      px      :     0.035228
      py      :     0.014062

 23 H s       :     0.662718  s :     0.662718
      pz      :     0.032587  p :     0.181713
      px      :     0.049508
      py      :     0.099618

 24 H s       :     0.811519  s :     0.811519
      pz      :     0.017788  p :     0.072739
      px      :     0.042754
      py      :     0.012197

 25 H s       :     0.824730  s :     0.824730
      pz      :     0.013822  p :     0.071845
      px      :     0.016689
      py      :     0.041334

 26 H s       :     0.837062  s :     0.837062
      pz      :     0.017356  p :     0.070445
      px      :     0.040930
      py      :     0.012158

 27 H s       :     0.821027  s :     0.821027
      pz      :     0.014998  p :     0.070914
      px      :     0.022300
      py      :     0.033616

 28 H s       :     0.821706  s :     0.821706
      pz      :     0.013106  p :     0.072537
      px      :     0.035023
      py      :     0.024407

 29 H s       :     0.838735  s :     0.838735
      pz      :     0.035597  p :     0.070549
      px      :     0.013002
      py      :     0.021951

 30 H s       :     0.839408  s :     0.839408
      pz      :     0.029927  p :     0.070477
      px      :     0.027538
      py      :     0.013011

 31 H s       :     0.839307  s :     0.839307
      pz      :     0.012665  p :     0.070501
      px      :     0.033705
      py      :     0.024130

 32 H s       :     0.825951  s :     0.825951
      pz      :     0.036569  p :     0.071772
      px      :     0.012987
      py      :     0.022216



                      *****************************
                      * MAYER POPULATION ANALYSIS *
                      *****************************

  NA   - Mulliken gross atomic population
  ZA   - Total nuclear charge
  QA   - Mulliken gross atomic charge
  VA   - Mayer's total valence
  BVA  - Mayer's bonded valence
  FA   - Mayer's free valence

  ATOM       NA         ZA         QA         VA         BVA        FA
  0 H      0.7698     1.0000     0.2302     0.9388     0.9388     0.0000
  1 C      6.1094     6.0000    -0.1094     2.9970     2.9970     0.0000
  2 C      6.7564     6.0000    -0.7564     3.8096     3.8096     0.0000
  3 C      6.1060     6.0000    -0.1060     4.2224     4.2224    -0.0000
  4 O      8.1588     8.0000    -0.1588     2.0910     2.0910     0.0000
  5 O      8.3104     8.0000    -0.3104     2.0373     2.0373     0.0000
  6 C      4.4899     6.0000     1.5101     0.2523     0.2523    -0.0000
  7 C      8.8150     6.0000    -2.8150     6.4533     6.4533     0.0000
  8 C      4.1830     6.0000     1.8170     0.5804     0.5804    -0.0000
  9 C      5.7273     6.0000     0.2727     2.5525     2.5525    -0.0000
 10 C      6.3370     6.0000    -0.3370     3.1849     3.1849     0.0000
 11 C      6.2055     6.0000    -0.2055     4.2316     4.2316     0.0000
 12 C      7.3185     6.0000    -1.3185     3.8284     3.8284     0.0000
 13 O      8.2455     8.0000    -0.2455     1.9227     1.9227    -0.0000
 14 C      4.2347     6.0000     1.7653     1.4321     1.4321     0.0000
 15 C      7.0430     6.0000    -1.0430     5.0621     5.0621     0.0000
 16 C      6.3788     6.0000    -0.3788     3.7711     3.7711     0.0000
 17 C      6.1662     6.0000    -0.1662     3.9162     3.9162    -0.0000
 18 C      6.2135     6.0000    -0.2135     3.6304     3.6304     0.0000
 19 C      5.9422     6.0000     0.0578     2.9726     2.9726    -0.0000
 20 H      0.8103     1.0000     0.1897     0.9322     0.9322    -0.0000
 21 H      0.8177     1.0000     0.1823     0.9422     0.9422     0.0000
 22 H      0.7919     1.0000     0.2081     0.9298     0.9298     0.0000
 23 H      0.6767     1.0000     0.3233     0.9502     0.9502     0.0000
 24 H      0.8102     1.0000     0.1898     0.9596     0.9596     0.0000
 25 H      0.8270     1.0000     0.1730     0.9584     0.9584     0.0000
 26 H      0.8223     1.0000     0.1777     0.9441     0.9441    -0.0000
 27 H      0.8155     1.0000     0.1845     0.9546     0.9546     0.0000
 28 H      0.8078     1.0000     0.1922     0.9470     0.9470     0.0000
 29 H      0.8273     1.0000     0.1727     0.9519     0.9519    -0.0000
 30 H      0.8243     1.0000     0.1757     0.9485     0.9485     0.0000
 31 H      0.8255     1.0000     0.1745     0.9480     0.9480    -0.0000
 32 H      0.8324     1.0000     0.1676     0.9647     0.9647     0.0000

  Mayer bond orders larger than 0.100000
B(  0-H ,  1-C ) :   1.0982 B(  0-H ,  6-C ) :  -0.5532 B(  0-H ,  7-C ) :   0.3864 
B(  1-C ,  2-C ) :   0.9499 B(  1-C ,  3-C ) :   0.8654 B(  1-C ,  4-O ) :  -0.3126 
B(  1-C ,  6-C ) :  -0.2182 B(  1-C ,  7-C ) :   0.4850 B(  2-C ,  3-C ) :  -0.1011 
B(  2-C ,  6-C ) :  -0.7449 B(  2-C ,  7-C ) :   0.4559 B(  2-C , 11-C ) :   0.2655 
B(  2-C , 20-H ) :   0.9678 B(  2-C , 21-H ) :   0.9993 B(  2-C , 22-H ) :   0.9542 
B(  3-C ,  4-O ) :   1.3948 B(  3-C ,  5-O ) :   2.0707 B(  3-C ,  6-C ) :  -0.4090 
B(  3-C ,  9-C ) :   0.1154 B(  3-C , 11-C ) :   0.3937 B(  4-O ,  6-C ) :   0.5919 
B(  4-O ,  7-C ) :  -0.1352 B(  4-O , 11-C ) :  -0.1618 B(  4-O , 23-H ) :   0.8478 
B(  5-O ,  7-C ) :   0.1238 B(  5-O , 11-C ) :  -0.2122 B(  6-C ,  7-C ) :  -0.3020 
B(  6-C ,  8-C ) :   0.6765 B(  6-C ,  9-C ) :  -0.1999 B(  6-C , 10-C ) :   0.5184 
B(  6-C , 11-C ) :   1.2314 B(  6-C , 12-C ) :  -0.2816 B(  6-C , 14-C ) :   0.8183 
B(  6-C , 16-C ) :   0.5625 B(  6-C , 17-C ) :  -0.1575 B(  6-C , 18-C ) :   0.2918 
B(  6-C , 19-C ) :  -1.5448 B(  6-C , 21-H ) :  -0.1209 B(  6-C , 22-H ) :  -0.1275 
B(  6-C , 23-H ) :   0.1551 B(  7-C ,  8-C ) :  -0.2769 B(  7-C ,  9-C ) :   0.7683 
B(  7-C , 10-C ) :  -0.5780 B(  7-C , 11-C ) :   1.1749 B(  7-C , 12-C ) :   2.5278 
B(  7-C , 14-C ) :  -0.9658 B(  7-C , 15-C ) :   2.1914 B(  7-C , 17-C ) :   0.2278 
B(  7-C , 18-C ) :  -0.4915 B(  7-C , 19-C ) :  -0.2369 B(  7-C , 21-H ) :   0.1163 
B(  7-C , 24-H ) :   0.8037 B(  7-C , 27-H ) :   0.1137 B(  8-C ,  9-C ) :   1.6007 
B(  8-C , 10-C ) :   0.1167 B(  8-C , 11-C ) :   0.1086 B(  8-C , 12-C ) :  -0.8667 
B(  8-C , 14-C ) :   0.7727 B(  8-C , 15-C ) :  -0.9468 B(  8-C , 16-C ) :   0.3901 
B(  8-C , 17-C ) :  -0.2082 B(  8-C , 18-C ) :   0.2832 B(  8-C , 19-C ) :  -0.7745 
B(  9-C , 10-C ) :   1.0753 B(  9-C , 11-C ) :  -0.6727 B(  9-C , 12-C ) :  -0.7378 
B(  9-C , 14-C ) :  -0.9914 B(  9-C , 15-C ) :  -0.8048 B(  9-C , 16-C ) :  -1.0061 
B(  9-C , 17-C ) :   0.2069 B(  9-C , 18-C ) :  -0.1614 B(  9-C , 19-C ) :   2.3392 
B(  9-C , 25-H ) :   0.9088 B(  9-C , 26-H ) :  -0.1144 B( 10-C , 11-C ) :   1.1618 
B( 10-C , 14-C ) :   0.3560 B( 10-C , 15-C ) :  -0.2189 B( 10-C , 16-C ) :   0.2797 
B( 10-C , 17-C ) :  -0.1118 B( 10-C , 18-C ) :   0.1219 B( 10-C , 19-C ) :  -0.4341 
B( 10-C , 26-H ) :   1.0552 B( 11-C , 14-C ) :  -0.2088 B( 11-C , 15-C ) :   0.1807 
B( 11-C , 16-C ) :  -0.1762 B( 11-C , 19-C ) :   0.2371 B( 11-C , 27-H ) :   0.8541 
B( 12-C , 13-O ) :   1.8856 B( 12-C , 14-C ) :  -0.4295 B( 12-C , 15-C ) :   1.6660 
B( 12-C , 16-C ) :   0.1849 B( 12-C , 18-C ) :  -0.1701 B( 12-C , 19-C ) :  -0.1867 
B( 12-C , 32-H ) :   0.1657 B( 14-C , 15-C ) :   0.7721 B( 14-C , 16-C ) :  -0.1332 
B( 14-C , 19-C ) :   1.5713 B( 14-C , 32-H ) :  -0.1399 B( 15-C , 16-C ) :   1.3335 
B( 15-C , 19-C ) :  -0.1266 B( 15-C , 28-H ) :   0.9666 B( 16-C , 17-C ) :   1.3648 
B( 16-C , 18-C ) :   0.1015 B( 16-C , 29-H ) :   1.0042 B( 17-C , 18-C ) :   1.4328 
B( 17-C , 19-C ) :   0.1741 B( 17-C , 30-H ) :   0.9554 B( 18-C , 19-C ) :   1.2730 
B( 18-C , 31-H ) :   1.0131 B( 19-C , 31-H ) :  -0.1194 B( 19-C , 32-H ) :   0.9542 


-------
TIMINGS
-------

Total SCF time: 0 days 0 hours 0 min 39 sec 

Total time                  ....      39.747 sec
Sum of individual times     ....      39.672 sec  ( 99.8%)

SCF preparation             ....       0.327 sec  (  0.8%)
Fock matrix formation       ....      38.901 sec  ( 97.9%)
  Startup                   ....       0.019 sec  (  0.0% of F)
  Split-RI-J                ....       9.322 sec  ( 24.0% of F)
  XC integration            ....      15.466 sec  ( 39.8% of F)
    Basis function eval.    ....       3.670 sec  ( 23.7% of XC)
    Density eval.           ....       4.648 sec  ( 30.1% of XC)
    XC-Functional eval.     ....       0.219 sec  (  1.4% of XC)
    XC-Potential eval.      ....       6.522 sec  ( 42.2% of XC)
  CPCM terms                ....      14.016 sec  ( 36.0% of F)
Diagonalization             ....       0.000 sec  (  0.0%)
Density matrix formation    ....       0.045 sec  (  0.1%)
Total Energy calculation    ....       0.024 sec  (  0.1%)
Population analysis         ....       0.060 sec  (  0.2%)
Orbital Transformation      ....       0.039 sec  (  0.1%)
Orbital Orthonormalization  ....       0.000 sec  (  0.0%)
DIIS solution               ....       0.044 sec  (  0.1%)
SOSCF solution              ....       0.232 sec  (  0.6%)
Finished LeanSCF after  39.8 sec

Maximum memory used throughout the entire LEANSCF-calculation: 109.5 MB

-------------------------   --------------------
FINAL SINGLE POINT ENERGY      -843.051771629009
-------------------------   --------------------

                                *** OPTIMIZATION RUN DONE ***


------------------------------------------------------------------------------
                              ORCA PROPERTY CALCULATIONS
------------------------------------------------------------------------------

GBWName                                 ... Dexketoprofen\Dexketoprofen_PBE_6-311+G\Dexketoprofen_PBE_6-311+G.orcainp.gbw
Number of atoms                         ...     33
Number of basis functions               ...    502
Max core memory                         ...   1024 MB

Electric properties:
Dipole moment                           ... YES
Quadrupole moment                       ...  NO
Static polarizability (Dipole/Dipole)   ...  NO
Static polarizability (Dipole/Quad.)    ...  NO
Static polarizability (Quad./Quad.)     ...  NO
Static polarizability (Velocity)        ...  NO

Atomic electric properties:
Dipole moment                           ...  NO
Quadrupole moment                       ...  NO
Static polarizability                   ...  NO

Choice of electric origin               ... Center of mass
Position of electric origin             ...     3.633198    -5.467592     1.474621

General magnetic properties:
Magnetizability                         ...  NO

EPR properties:
g-Tensor (aka g-matrix)                 ...  NO
Zero-Field splitting spin-orbit         ...  NO
Zero-field splitting spin-spin          ...  NO
Hyperfine couplings                     ...  NO (   0 nuclei)
Quadrupole couplings                    ...  NO (   0 nuclei)
Contact density                         ...  NO (   0 nuclei)

NMR properties:
Chemical shifts                         ...  NO (   0 nuclei)
Spin-rotation constants                 ...  NO (   0 nuclei)
Spin-spin couplings                     ...  NO (   0 nuclei,    0 pairs)

Choice of magnetic origin               ... GIAO
Position of magnetic origin             ...     0.000000     0.000000     0.000000

Properties with geometric perturbations:
SCF Hessian                             ...  NO
IR spectrum                             ...  NO
VCD spectrum                            ...  NO
X-ray spectroscopy properties:
SCF XES/XAS/RIXS spectra                ...  NO


-------------
DIPOLE MOMENT
-------------

Method             : SCF
Type of density    : Electron Density
Multiplicity       :   1
Irrep              :   0
Energy             :  -843.0517716290091812 Eh
Relativity type    : 
Basis              : AO
                                X                 Y                 Z
Electronic contribution:      2.832401022      -3.884489557       2.157456631
Nuclear contribution   :     -4.094438548       3.345177384      -1.336863317
                        -----------------------------------------
Total Dipole Moment    :     -1.262037526      -0.539312173       0.820593313
                        -----------------------------------------
Magnitude (a.u.)       :      1.599052758
Magnitude (Debye)      :      4.064469102



--------------------
Rotational spectrum 
--------------------
 
Rotational constants in cm-1:             0.020712             0.007065             0.005905 
Rotational constants in MHz :           620.931482           211.799019           177.031984 

Dipole components along the rotational axes: 
x,y,z [a.u.] :     1.244254     0.976929     0.233266 
x,y,z [Debye]:     3.162641     2.483155     0.592915 

 

Dipole moment calculation done in   0.0 sec 

Maximum memory used throughout the entire PROP-calculation: 44.3 MB

--------------------------------
SUGGESTED CITATIONS FOR THIS RUN
--------------------------------

Below you find a list of papers that are relevant to this ORCA run
We neither can nor want to force you to cite these papers, but we appreciate if you do
You receive ORCA, which is the product of decades of hard work by many enthusiastic individuals, for free
The only thing we kindly ask in return is that you cite our papers,
We deeply appreciate it, if you show your appreciation for ORCA by not just citing the generic ORCA reference.

Please note that relegating all ORCA citations to the supporting information does *not* help us.
SI sections are not indexed - citations you put there will not count into any citation statistics
But we need these citations in order to attract the funding resources that allow us to do what we are doing

Therefore, if you are a happy ORCA user, please consider citing a few of the papers listed below in the main body of your paper

In addition to the list printed below, the program has created the file Dexketoprofen\Dexketoprofen_PBE_6-311+G\Dexketoprofen_PBE_6-311+G.orcainp.bibtex that contains the list in bibtex format
You can import this file easily into all common literature databanks and citation aid programs


List of essential papers. We consider these as the minimum necessary citations

  1. Neese,F.
     Software update: the ORCA program system, version 5.0
     WIRES Comput. Molec. Sci., 2022 12(1)e1606
     doi.org/10.1002/wcms.1606

List of papers to cite with high priority. The work reported in these papers was absolutely
necessary for this run to complete.
Our perspective: the developers of density functionals and basis sets usually get cited in chemistry papers
Good! But without the algorithms to do something with them, the functionals or basis sets would not do anything.
Hence, in our opinion, the algorithm design and method developments papers are equally worthy of getting cited

  1. Neese,F.
     An improvement of the resolution of the identity approximation for the formation of the Coulomb matrix
     J. Comp. Chem., 2003 24(14)1740-1747
     doi.org/10.1002/jcc.10318
  2. Garcia-Rates,M.; Neese,F.
     Effect of the Solute Cavity on the Solvation Energy and its Derivatives within the Framework of the Gaussian Charge Scheme
     J. Comput. Chem., 2020 41 922-939
     doi.org/10.1002/jcc.26139
  3. Neese,F.
     The SHARK Integral Generation and Digestion System
     J. Comp. Chem., 2022  1-16
     doi.org/10.1002/jcc.26942

List of suggested additional citations. These are papers that are important in the 'surrounding' of 
of this run, or papers that preceded the highly important papers. If you like your results we are grateful for a citation.

  1. Neese,F.
     The ORCA program system
     WIRES Comput. Molec. Sci., 2012 2(1)73-78
     doi.org/10.1002/wcms.81
  2. Neese,F.
     Software update: the ORCA program system, version 4.0
     WIRES Comput. Molec. Sci., 2018 8(1)1-6
     doi.org/10.1002/wcms.1327
  3. Neese,F.; Wennmohs,F.; Becker,U.; Riplinger,C.
     The ORCA quantum chemistry program package
     J. Chem. Phys., 2020 152 Art. No. L224108
     doi.org/10.1063/5.0004608

List of optional additional citations

  1. Neese,F.
     Approximate second-order SCF convergence for spin unrestricted wavefunctions
     Chem. Phys. Lett., 2000 325(1-3)93-98
     doi.org/10.1016/s0009-2614(00)00662-x

Timings for individual modules:

Sum of individual times          ...     1438.585 sec (=  23.976 min)
Startup calculation              ...       23.413 sec (=   0.390 min)   1.6 %
SCF iterations                   ...      959.248 sec (=  15.987 min)  66.7 %
Property calculations            ...        0.118 sec (=   0.002 min)   0.0 %
SCF Gradient evaluation          ...      455.633 sec (=   7.594 min)  31.7 %
Geometry relaxation              ...        0.173 sec (=   0.003 min)   0.0 %
                             ****ORCA TERMINATED NORMALLY****
TOTAL RUN TIME: 0 days 0 hours 24 minutes 0 seconds 217 msec
