
                                 *****************
                                 * O   R   C   A *
                                 *****************

                                            #,                                       
                                            ###                                      
                                            ####                                     
                                            #####                                    
                                            ######                                   
                                           ########,                                 
                                     ,,################,,,,,                         
                               ,,#################################,,                 
                          ,,##########################################,,             
                       ,#########################################, ''#####,          
                    ,#############################################,,   '####,        
                  ,##################################################,,,,####,       
                ,###########''''           ''''###############################       
              ,#####''   ,,,,##########,,,,          '''####'''          '####       
            ,##' ,,,,###########################,,,                        '##       
           ' ,,###''''                  '''############,,,                           
         ,,##''                                '''############,,,,        ,,,,,,###''
      ,#''                                            '''#######################'''  
     '                                                          ''''####''''         
             ,#######,   #######,   ,#######,      ##                                
            ,#'     '#,  ##    ##  ,#'     '#,    #''#        ,####,   ,####,        
            ##       ##  ##   ,#'  ##            #'  '#       #'       #'  '#        
            ##       ##  #######   ##           ,######,      #####,   #    #        
            '#,     ,#'  ##    ##  '#,     ,#' ,#      #,     #,   #   #,  ,#        
             '#######'   ##     ##  '#######'  #'      '#     '####' # '####'        



                #########################################################
                #                        -***-                          #
                #          Department of theory and spectroscopy        #
                #                                                       #
                #                      Frank Neese                      #
                #                                                       #
                #     Directorship, Architecture, Infrastructure        #
                #                    SHARK, DRIVERS                     #
                #        Core code/Algorithms in most modules           #
                #                                                       #
                #        Max Planck Institute fuer Kohlenforschung      #
                #                Kaiser Wilhelm Platz 1                 #
                #                 D-45470 Muelheim/Ruhr                 #
                #                      Germany                          #
                #                                                       #
                #                  All rights reserved                  #
                #                        -***-                          #
                #########################################################


                         Program Version 6.0.0  -   RELEASE   -


 With contributions from (in alphabetic order):
   Daniel Aravena         : Magnetic Suceptibility
   Michael Atanasov       : Ab Initio Ligand Field Theory (pilot matlab implementation)
   Alexander A. Auer      : GIAO ZORA, VPT2 properties, NMR spectrum
   Ute Becker             : All parallelization in ORCA, NUMFREQ, NUMCALC
   Giovanni Bistoni       : ED, misc. LED, open-shell LED, HFLD
   Martin Brehm           : Molecular dynamics
   Dmytro Bykov           : pre 5.0 version of the SCF Hessian
   Marcos Casanova-Páez   : Triplet and SCS-CIS(D). UHF-(DLPNO)-IP/EA/STEOM-CCSD. UHF-CVS-IP/STEOM-CCSD
   Vijay G. Chilkuri      : MRCI spin determinant printing, contributions to CSF-ICE
   Pauline Colinet        : FMM embedding
   Dipayan Datta          : RHF DLPNO-CCSD density
   Achintya Kumar Dutta   : EOM-CC, STEOM-CC
   Nicolas Foglia         : Exact transition moments, OPA infrastructure, MCD improvements
   Dmitry Ganyushin       : Spin-Orbit,Spin-Spin,Magnetic field MRCI
   Miquel Garcia          : C-PCM and meta-GGA Hessian, CCSD/C-PCM, Gaussian charge scheme
   Tiago L. C. Gouveia    : GS-ROHF, GS-ROCIS
   Yang Guo               : DLPNO-NEVPT2, F12-NEVPT2, CIM, IAO-localization
   Andreas Hansen         : Spin unrestricted coupled pair/coupled cluster methods
   Ingolf Harden          : AUTO-CI MPn and infrastructure 
   Benjamin Helmich-Paris : MC-RPA, TRAH-(SCF,CASSCF), AVAS, COSX integrals, SCF dyn. polar.
   Lee Huntington         : MR-EOM, pCC
   Robert Izsak           : Overlap fitted RIJCOSX, COSX-SCS-MP3, EOM
   Riya Kayal             : Wick's Theorem for AUTO-CI, AUTO-CI UHF-CCSDT
   Emily Kempfer          : AUTO-CI, RHF CISDT and CCSDT
   Christian Kollmar      : KDIIS, OOCD, Brueckner-CCSD(T), CCSD density, CASPT2, CASPT2-K, improved NEVPT2
   Axel Koslowski         : Symmetry handling
   Simone Kossmann        : Meta GGA functionals, TD-DFT gradient, OOMP2, (MP2 Hessian; deprecated post 5.0)
   Lucas Lang             : DCDCAS
   Marvin Lechner         : AUTO-CI (C++ implementation), FIC-MRCC
   Spencer Leger          : CASSCF response
   Dagmar Lenk            : GEPOL surface, SMD, ORCA-2-JSON
   Dimitrios Liakos       : Extrapolation schemes; Compound Job, initial MDCI parallelization
   Dimitrios Manganas     : Further ROCIS development; embedding schemes. LFT, Crystal Embedding
   Dimitrios Pantazis     : SARC Basis sets
   Anastasios Papadopoulos: AUTO-CI, single reference methods and gradients
   Taras Petrenko         : pre 6.0 DFT Hessian and TD-DFT gradient, (ASA, deprecated), ECA, 1-Electron XAS/XES, NRVS
   Peter Pinski           : DLPNO-MP2, DLPNO-MP2 Gradient
   Christoph Reimann      : Effective Core Potentials
   Marius Retegan         : Local ZFS, SOC
   Christoph Riplinger    : Optimizer, TS searches, QM/MM, DLPNO-CCSD(T), (RO)-DLPNO pert. Triples
   Michael Roemelt        : Original ROCIS implementation
   Masaaki Saitow         : Open-shell DLPNO-CCSD energy and density
   Barbara Sandhoefer     : DKH picture change effects
   Kantharuban Sivalingam : CASSCF convergence/infrastructure, NEVPT2 and variants, FIC-MRCI
   Bernardo de Souza      : ESD, SOC TD-DFT
   Georgi Stoychev        : AutoAux, RI-MP2 NMR, DLPNO-MP2 response, X2C
   Van Anh Tran           : RI-MP2 g-tensors
   Willem Van den Heuvel  : Paramagnetic NMR
   Zikuan Wang            : NOTCH, Electric field optimization 
   Frank Wennmohs         : Technical directorship and infrastructure
   Hang Xu                : AUTO-CI-Response properties 


 We gratefully acknowledge several colleagues who have allowed us to
 interface, adapt or use parts of their codes:
   Stefan Grimme, W. Hujo, H. Kruse, P. Pracht,  : VdW corrections, initial TS optimization,
                  C. Bannwarth, S. Ehlert,         DFT functionals, gCP, sTDA/sTD-DF
                  L. Wittmann, M. Mueller
   Ed Valeev, F. Pavosevic, A. Kumar             : LibInt (2-el integral package), F12 methods
   Garnet Chan, S. Sharma, J. Yang, R. Olivares  : DMRG
   Ulf Ekstrom                                   : XCFun DFT Library
   Mihaly Kallay                                 : mrcc  (arbitrary order and MRCC methods)
   Frank Weinhold                                : gennbo (NPA and NBO analysis)
   Simon Mueller                                 : openCOSMO-RS
   Christopher J. Cramer and Donald G. Truhlar   : smd solvation model
   Lars Goerigk                                  : TD-DFT with DH, B97 family of functionals
   V. Asgeirsson, H. Jonsson                     : NEB implementation
   FAccTs GmbH                                   : IRC, NEB, NEB-TS, DLPNO-Multilevel, CI-OPT
                                                   MM, QMMM, 2- and 3-layer-ONIOM, Crystal-QMMM,
                                                   LR-CPCM, SF, NACMEs, symmetry and pop. for TD-DFT,
                                                   nearIR, NL-DFT gradient (VV10), updates on ESD,
                                                   ML-optimized integration grids, MBIS, APM,
                                                   GOAT, DOCKER, SOLVATOR, interface openCOSMO-RS
   S Lehtola, MJT Oliveira, MAL Marques          : LibXC Library
   Liviu Ungur et al                             : ANISO software


 Your calculation uses the libint2 library for the computation of 2-el integrals
 For citations please refer to: http://libint.valeyev.net

 Your ORCA version has been built with support for libXC version: 6.2.2
 For citations please refer to: https://libxc.gitlab.io

 This ORCA versions uses:
   CBLAS   interface :  Fast vector & matrix operations
   LAPACKE interface :  Fast linear algebra routines
   Shared memory     :  Shared parallel matrices


Warning: RI is on but no J-basis has been assigned. Assigning Def2/J (nothing to worry about!)
================================================================================

----- Orbital basis set information -----
Your calculation utilizes the basis: STO-3G
   H-Ne       : W. J. Hehre, R. F. Stewart and J. A. Pople, J. Chem. Phys. 2657 (1969).
   Na-Ar      : W. J. Hehre, R. Ditchfield, R. F. Stewart and J. A. Pople, J. Chem. Phys. 2769 (1970).
   K,Ca,Ga-Kr : W. J. Pietro, B. A. Levy, W. J. Hehre and R. F. Stewart, J. Am. Chem. Soc. 19, 2225 (1980).
   Sc-Zn,Y-Cd : W. J. Pietro and W. J. Hehre, J. Comp. Chem. 4, 241 (1983).

----- AuxJ basis set information -----
Your calculation utilizes the auxiliary basis: def2/J
   F. Weigend, Phys. Chem. Chem. Phys. 8, 1057 (2006).

================================================================================
                                        WARNINGS
                       Please study these warnings very carefully!
================================================================================


WARNING: Geometry Optimization
  ===> : Switching off AutoStart
         For restart on a previous wavefunction, please use MOREAD

================================================================================
                                       INPUT FILE
================================================================================
NAME = Ibuprofen\Ibuprofen_PBE_STO-3G\Ibuprofen_PBE_STO-3G.orcainp
|  1> # ORCA input file
|  2> # 
|  3> !PBE STO-3G Opt CPCM(WATER)
|  4> * xyz 0 1
|  5>    C        2.95021        -0.38900         1.26274
|  6>    C        2.52045        -1.27848         0.09338
|  7>    C        0.99553        -1.40741         0.07675
|  8>    C        3.03305        -0.73504        -1.25720
|  9>    C        4.54216        -0.63179        -1.32375
| 10>    C        5.34421        -1.77303        -1.21037
| 11>    C        6.73846        -1.66838        -1.22843
| 12>    C        7.36134        -0.42186        -1.38715
| 13>    C        6.55228         0.71875        -1.50569
| 14>    C        5.15995         0.61450        -1.47446
| 15>    C        8.87998        -0.34092        -1.48484
| 16>    C        9.28189         0.24772        -2.84195
| 17>    C        9.61173         0.40524        -0.37163
| 18>    O        8.87745         0.76600         0.70549
| 19>    O       10.81195         0.64384        -0.41318
| 20>    H        2.59304        -0.80141         2.21203
| 21>    H        2.55000         0.62512         1.15790
| 22>    H        4.04024        -0.31777         1.33342
| 23>    H        2.93334        -2.27988         0.25826
| 24>    H        0.51345        -0.43617        -0.07745
| 25>    H        0.63424        -1.81602         1.02656
| 26>    H        0.66784        -2.08146        -0.72144
| 27>    H        2.58341         0.24756        -1.45114
| 28>    H        2.69896        -1.38702        -2.07513
| 29>    H        4.88886        -2.75489        -1.10326
| 30>    H        7.32748        -2.57887        -1.13792
| 31>    H        6.99599         1.70432        -1.63567
| 32>    H        4.56054         1.51848        -1.56984
| 33>    H        9.27510        -1.36482        -1.43749
| 34>    H        8.93076         1.27903        -2.95691
| 35>    H        8.86386        -0.34431        -3.66356
| 36>    H       10.37078         0.26519        -2.96132
| 37>    H        7.93807         0.51129         0.66734
| 38> *
| 39> 
| 40>                          ****END OF INPUT****
================================================================================

                       *****************************
                       * Geometry Optimization Run *
                       *****************************

Geometry optimization settings:
Update method            Update   .... BFGS
Choice of coordinates    CoordSys .... (2022) Redundant Internals
Initial Hessian          InHess   .... Almloef's Model
Max. no of cycles        MaxIter  .... 99

Convergence Tolerances:
Energy Change            TolE     ....  5.0000e-06 Eh
Max. Gradient            TolMAXG  ....  3.0000e-04 Eh/bohr
RMS Gradient             TolRMSG  ....  1.0000e-04 Eh/bohr
Max. Displacement        TolMAXD  ....  4.0000e-03 bohr
RMS Displacement         TolRMSD  ....  2.0000e-03 bohr
Strict Convergence                .... False

------------------------------------------------------------------------------
                        ORCA OPTIMIZATION COORDINATE SETUP
------------------------------------------------------------------------------

The optimization will be done in redundant internal coordinates (2022)
Making redundant internal coordinates   ...  (2022 redundants) done
Evaluating the initial hessian          ...  (Almloef) done
Evaluating the coordinates              ...  done
Calculating the B-matrix                .... done
Calculating the G-matrix                .... done
Diagonalizing the G-matrix              .... done
Small eigenvalue found = 1.019e-02
Small eigenvalue found = 1.799e-02
Small eigenvalue found = 2.497e-02
Small eigenvalue found = 2.537e-02
The first mode is                       ....   64
The number of degrees of freedom        ....   93

    -----------------------------------------------------------------
                    Redundant Internal Coordinates


    -----------------------------------------------------------------
         Definition                    Initial Value    Approx d2E/dq
    -----------------------------------------------------------------
      1. B(C   1,C   0)                  1.5308         0.372513   
      2. B(C   2,C   1)                  1.5305         0.372956   
      3. B(C   3,C   1)                  1.5434         0.355601   
      4. B(C   4,C   3)                  1.5141         0.396044   
      5. B(C   5,C   4)                  1.3995         0.603393   
      6. B(C   6,C   5)                  1.3983         0.606059   
      7. B(C   7,C   6)                  1.4025         0.596772   
      8. B(C   8,C   7)                  1.4034         0.594715   
      9. B(C   9,C   8)                  1.3966         0.609882   
     10. B(C   9,C   4)                  1.3991         0.604147   
     11. B(C  10,C   7)                  1.5239         0.381999   
     12. B(C  11,C  10)                  1.5329         0.369619   
     13. B(C  12,C  10)                  1.5269         0.377842   
     14. B(O  13,C  12)                  1.3526         0.642036   
     15. B(O  14,C  12)                  1.2244         1.028160   
     16. B(H  15,C   0)                  1.0949         0.353677   
     17. B(H  16,C   0)                  1.0953         0.353206   
     18. B(H  17,C   0)                  1.0946         0.354015   
     19. B(H  18,C   1)                  1.0957         0.352693   
     20. B(H  19,C   2)                  1.0952         0.353273   
     21. B(H  20,C   2)                  1.0953         0.353186   
     22. B(H  21,C   2)                  1.0949         0.353661   
     23. B(H  22,C   3)                  1.0979         0.349854   
     24. B(H  23,C   3)                  1.0980         0.349613   
     25. B(H  24,C   5)                  1.0876         0.363294   
     26. B(H  25,C   6)                  1.0882         0.362520   
     27. B(H  26,C   8)                  1.0886         0.361913   
     28. B(H  27,C   9)                  1.0888         0.361640   
     29. B(H  28,C  10)                  1.0985         0.349011   
     30. B(H  29,C  11)                  1.0955         0.352904   
     31. B(H  30,C  11)                  1.0956         0.352796   
     32. B(H  31,C  11)                  1.0956         0.352829   
     33. B(H  32,H  17)                  4.0403         0.000001   
     34. B(H  32,O  13)                  0.9740         0.493805   
     35. A(C   1,C   0,H  15)          110.6012         0.323211   
     36. A(H  15,C   0,H  17)          107.0596         0.289245   
     37. A(C   1,C   0,H  17)          111.5122         0.323262   
     38. A(H  16,C   0,H  17)          108.0467         0.289185   
     39. A(C   1,C   0,H  16)          111.2422         0.323141   
     40. A(H  15,C   0,H  16)          108.2131         0.289141   
     41. A(C   0,C   1,C   3)          111.7539         0.360132   
     42. A(C   2,C   1,H  18)          107.4648         0.323127   
     43. A(C   2,C   1,C   3)          110.5529         0.360205   
     44. A(C   3,C   1,H  18)          109.1678         0.320615   
     45. A(C   0,C   1,H  18)          108.0788         0.323064   
     46. A(C   0,C   1,C   2)          109.6932         0.363072   
     47. A(C   1,C   2,H  19)          111.4324         0.323214   
     48. A(H  20,C   2,H  21)          107.6854         0.289137   
     49. A(C   1,C   2,H  20)          110.5286         0.323201   
     50. A(H  19,C   2,H  21)          108.1533         0.289148   
     51. A(C   1,C   2,H  21)          110.9766         0.323272   
     52. A(H  19,C   2,H  20)          107.9229         0.289087   
     53. A(C   1,C   3,H  23)          109.9811         0.320156   
     54. A(C   4,C   3,H  22)          109.8411         0.325897   
     55. A(H  22,C   3,H  23)          105.9756         0.288188   
     56. A(C   1,C   3,C   4)          113.1722         0.363917   
     57. A(C   1,C   3,H  22)          109.4931         0.320192   
     58. A(C   4,C   3,H  23)          108.1198         0.325860   
     59. A(C   5,C   4,C   9)          118.8196         0.429947   
     60. A(C   3,C   4,C   5)          120.8000         0.398868   
     61. A(C   3,C   4,C   9)          120.3691         0.398956   
     62. A(C   4,C   5,C   6)          120.6219         0.430191   
     63. A(C   6,C   5,H  24)          119.0979         0.352079   
     64. A(C   4,C   5,H  24)          120.2799         0.351817   
     65. A(C   5,C   6,C   7)          120.7185         0.429340   
     66. A(C   7,C   6,H  25)          120.8421         0.351035   
     67. A(C   5,C   6,H  25)          118.4266         0.351952   
     68. A(C   8,C   7,C  10)          121.7292         0.395340   
     69. A(C   6,C   7,C  10)          119.8045         0.395580   
     70. A(C   6,C   7,C   8)          118.4162         0.427888   
     71. A(C   9,C   8,H  26)          118.4633         0.352227   
     72. A(C   7,C   8,C   9)          120.8090         0.429559   
     73. A(C   7,C   8,H  26)          120.7241         0.350731   
     74. A(C   4,C   9,C   8)          120.6042         0.430774   
     75. A(C   4,C   9,H  27)          120.3900         0.351620   
     76. A(C   8,C   9,H  27)          119.0058         0.352182   
     77. A(C   7,C  10,C  11)          109.7811         0.364076   
     78. A(C  12,C  10,H  28)          104.5771         0.323260   
     79. A(C  11,C  10,H  28)          107.5644         0.322096   
     80. A(C   7,C  10,H  28)          107.8285         0.323841   
     81. A(C  11,C  10,C  12)          109.3994         0.363396   
     82. A(C   7,C  10,C  12)          117.1803         0.365449   
     83. A(H  30,C  11,H  31)          107.8271         0.288980   
     84. A(H  29,C  11,H  31)          106.9853         0.288994   
     85. A(C  10,C  11,H  31)          111.2958         0.322671   
     86. A(H  29,C  11,H  30)          107.9222         0.288990   
     87. A(C  10,C  11,H  30)          110.8782         0.322666   
     88. A(C  10,C  11,H  29)          111.7386         0.322682   
     89. A(O  13,C  12,O  14)          120.4769         0.472599   
     90. A(C  10,C  12,O  14)          122.7010         0.432046   
     91. A(C  10,C  12,O  13)          116.7921         0.397365   
     92. A(C  12,O  13,H  32)          114.9996         0.369057   
     93. D(C   3,C   1,C   0,H  15)   -178.9388         0.011084   
     94. D(C   2,C   1,C   0,H  15)     58.0846         0.011084   
     95. D(C   3,C   1,C   0,H  17)    -59.9238         0.011084   
     96. D(C   3,C   1,C   0,H  16)     60.7720         0.011084   
     97. D(C   2,C   1,C   0,H  16)    -62.2046         0.011084   
     98. D(C   2,C   1,C   0,H  17)    177.0996         0.011084   
     99. D(H  19,C   2,C   1,C   3)    -61.3764         0.011109   
    100. D(H  19,C   2,C   1,C   0)     62.3068         0.011109   
    101. D(H  20,C   2,C   1,H  18)     59.5736         0.011109   
    102. D(H  20,C   2,C   1,C   3)    178.6232         0.011109   
    103. D(H  20,C   2,C   1,C   0)    -57.6936         0.011109   
    104. D(H  19,C   2,C   1,H  18)    179.5740         0.011109   
    105. D(C   4,C   3,C   1,H  18)    -59.8720         0.010163   
    106. D(C   4,C   3,C   1,C   0)     59.6290         0.010163   
    107. D(C   4,C   3,C   1,C   2)   -177.8845         0.010163   
    108. D(H  22,C   3,C   1,H  18)    177.2289         0.010163   
    109. D(H  22,C   3,C   1,C   2)     59.2164         0.010163   
    110. D(H  22,C   3,C   1,C   0)    -63.2701         0.010163   
    111. D(C   9,C   4,C   3,C   1)   -116.6358         0.011651   
    112. D(C   5,C   4,C   3,H  23)    -59.9559         0.011651   
    113. D(C   5,C   4,C   3,H  22)   -175.1661         0.011651   
    114. D(C   9,C   4,C   3,H  22)      6.0704         0.011651   
    115. D(C   5,C   4,C   3,C   1)     62.1277         0.011651   
    116. D(H  24,C   5,C   4,C   9)   -179.3297         0.025114   
    117. D(C   6,C   5,C   4,C   9)      0.8878         0.025114   
    118. D(H  24,C   5,C   4,C   3)      1.8880         0.025114   
    119. D(C   6,C   5,C   4,C   3)   -177.8945         0.025114   
    120. D(H  25,C   6,C   5,H  24)      0.2275         0.025349   
    121. D(H  25,C   6,C   5,C   4)   -179.9874         0.025349   
    122. D(C   7,C   6,C   5,C   4)     -1.2790         0.025349   
    123. D(C   7,C   6,C   5,H  24)    178.9360         0.025349   
    124. D(C  10,C   7,C   6,H  25)      2.2118         0.024537   
    125. D(C  10,C   7,C   6,C   5)   -176.4653         0.024537   
    126. D(C   8,C   7,C   6,H  25)    179.6825         0.024537   
    127. D(C   8,C   7,C   6,C   5)      1.0054         0.024537   
    128. D(H  26,C   8,C   7,C  10)     -2.2503         0.024359   
    129. D(H  26,C   8,C   7,C   6)   -179.6698         0.024359   
    130. D(C   9,C   8,C   7,C  10)    177.0407         0.024359   
    131. D(C   9,C   8,C   7,C   6)     -0.3789         0.024359   
    132. D(H  27,C   9,C   8,C   7)   -179.9491         0.025688   
    133. D(C   4,C   9,C   8,H  26)    179.3207         0.025688   
    134. D(C   4,C   9,C   8,C   7)      0.0140         0.025688   
    135. D(H  27,C   9,C   4,C   5)    179.7015         0.025181   
    136. D(H  27,C   9,C   4,C   3)     -1.5108         0.025181   
    137. D(C   8,C   9,C   4,C   5)     -0.2612         0.025181   
    138. D(H  27,C   9,C   8,H  26)     -0.6425         0.025688   
    139. D(C   8,C   9,C   4,C   3)    178.5266         0.025181   
    140. D(H  28,C  10,C   7,C   6)      1.6017         0.010882   
    141. D(C  12,C  10,C   7,C   8)     66.6788         0.010882   
    142. D(C  12,C  10,C   7,C   6)   -115.9367         0.010882   
    143. D(C  11,C  10,C   7,C   8)    -58.8756         0.010882   
    144. D(C  11,C  10,C   7,C   6)    118.5089         0.010882   
    145. D(H  30,C  11,C  10,H  28)     60.2768         0.010923   
    146. D(H  30,C  11,C  10,C  12)    173.3150         0.010923   
    147. D(H  30,C  11,C  10,C   7)    -56.7959         0.010923   
    148. D(H  29,C  11,C  10,H  28)   -179.2822         0.010923   
    149. D(H  29,C  11,C  10,C  12)    -66.2440         0.010923   
    150. D(H  29,C  11,C  10,C   7)     63.6451         0.010923   
    151. D(O  14,C  12,C  10,C  11)    -46.9991         0.010661   
    152. D(O  14,C  12,C  10,C   7)   -172.7429         0.010661   
    153. D(O  13,C  12,C  10,H  28)   -110.0435         0.010661   
    154. D(O  13,C  12,C  10,C  11)    134.9856         0.010661   
    155. D(O  13,C  12,C  10,C   7)      9.2418         0.010661   
    156. D(H  32,O  13,C  12,O  14)   -178.0530         0.030404   
    157. D(H  32,O  13,C  12,C  10)      0.0092         0.030404   
    -----------------------------------------------------------------

Number of atoms                         .... 33
Number of degrees of freedom            .... 157


         *************************************************************
         *                GEOMETRY OPTIMIZATION CYCLE   1            *
         *************************************************************
---------------------------------
CARTESIAN COORDINATES (ANGSTROEM)
---------------------------------
  C      2.950210   -0.389000    1.262740
  C      2.520450   -1.278480    0.093380
  C      0.995530   -1.407410    0.076750
  C      3.033050   -0.735040   -1.257200
  C      4.542160   -0.631790   -1.323750
  C      5.344210   -1.773030   -1.210370
  C      6.738460   -1.668380   -1.228430
  C      7.361340   -0.421860   -1.387150
  C      6.552280    0.718750   -1.505690
  C      5.159950    0.614500   -1.474460
  C      8.879980   -0.340920   -1.484840
  C      9.281890    0.247720   -2.841950
  C      9.611730    0.405240   -0.371630
  O      8.877450    0.766000    0.705490
  O     10.811950    0.643840   -0.413180
  H      2.593040   -0.801410    2.212030
  H      2.550000    0.625120    1.157900
  H      4.040240   -0.317770    1.333420
  H      2.933340   -2.279880    0.258260
  H      0.513450   -0.436170   -0.077450
  H      0.634240   -1.816020    1.026560
  H      0.667840   -2.081460   -0.721440
  H      2.583410    0.247560   -1.451140
  H      2.698960   -1.387020   -2.075130
  H      4.888860   -2.754890   -1.103260
  H      7.327480   -2.578870   -1.137920
  H      6.995990    1.704320   -1.635670
  H      4.560540    1.518480   -1.569840
  H      9.275100   -1.364820   -1.437490
  H      8.930760    1.279030   -2.956910
  H      8.863860   -0.344310   -3.663560
  H     10.370780    0.265190   -2.961320
  H      7.938070    0.511290    0.667340

----------------------------
CARTESIAN COORDINATES (A.U.)
----------------------------
  NO LB      ZA    FRAG     MASS         X           Y           Z
   0 C     6.0000    0    12.011    5.575089   -0.735103    2.386233
   1 C     6.0000    0    12.011    4.762960   -2.415977    0.176463
   2 C     6.0000    0    12.011    1.881279   -2.659619    0.145036
   3 C     6.0000    0    12.011    5.731634   -1.389024   -2.375764
   4 C     6.0000    0    12.011    8.583438   -1.193910   -2.501525
   5 C     6.0000    0    12.011   10.099093   -3.350541   -2.287268
   6 C     6.0000    0    12.011   12.733844   -3.152781   -2.321396
   7 C     6.0000    0    12.011   13.910917   -0.797200   -2.621334
   8 C     6.0000    0    12.011   12.382015    1.358241   -2.845342
   9 C     6.0000    0    12.011    9.750892    1.161237   -2.786326
  10 C     6.0000    0    12.011   16.780730   -0.644245   -2.805941
  11 C     6.0000    0    12.011   17.540230    0.468123   -5.370507
  12 C     6.0000    0    12.011   18.163537    0.765793   -0.702279
  13 O     8.0000    0    15.999   16.775949    1.447530    1.333183
  14 O     8.0000    0    15.999   20.431624    1.216681   -0.780797
  15 H     1.0000    0     1.008    4.900135   -1.514445    4.180131
  16 H     1.0000    0     1.008    4.818802    1.181306    2.188114
  17 H     1.0000    0     1.008    7.634947   -0.600498    2.519799
  18 H     1.0000    0     1.008    5.543209   -4.308349    0.488041
  19 H     1.0000    0     1.008    0.970280   -0.824242   -0.146359
  20 H     1.0000    0     1.008    1.198540   -3.431780    1.939917
  21 H     1.0000    0     1.008    1.262035   -3.933389   -1.363324
  22 H     1.0000    0     1.008    4.881937    0.467821   -2.742257
  23 H     1.0000    0     1.008    5.100295   -2.621088   -3.921427
  24 H     1.0000    0     1.008    9.238607   -5.205988   -2.084859
  25 H     1.0000    0     1.008   13.846930   -4.873358   -2.150357
  26 H     1.0000    0     1.008   13.220505    3.220698   -3.090968
  27 H     1.0000    0     1.008    8.618172    2.869511   -2.966568
  28 H     1.0000    0     1.008   17.527399   -2.579136   -2.716462
  29 H     1.0000    0     1.008   16.876691    2.417016   -5.587750
  30 H     1.0000    0     1.008   16.750268   -0.650652   -6.923125
  31 H     1.0000    0     1.008   19.597934    0.501136   -5.596084
  32 H     1.0000    0     1.008   15.000778    0.966198    1.261090

--------------------------------
INTERNAL COORDINATES (ANGSTROEM)
--------------------------------
 C      0   0   0     0.000000000000     0.00000000     0.00000000
 C      1   0   0     1.530774685445     0.00000000     0.00000000
 C      2   1   0     1.530451079976   109.69319757     0.00000000
 C      2   1   3     1.543422213783   111.75390370   122.97659260
 C      4   2   1     1.514101204378   113.17224034    59.62897433
 C      5   4   2     1.399488465297   120.80003733    62.12774448
 C      6   5   4     1.398288542684   120.62185491   182.10546629
 C      7   6   5     1.402491940512   120.71853495   358.72101334
 C      8   7   6     1.403431860583   118.41616767     1.00540452
 C      9   8   7     1.396576601658   120.80897981   359.62112357
 C      8   7   6     1.523929811146   119.80454381   183.53472139
 C     11   8   7     1.532897990670   109.78111772   118.50890178
 C     11   8   7     1.526908416442   117.18028431   244.06325010
 O     13  11   8     1.352590991542   116.79212193     9.24179940
 O     13  11   8     1.224411863263   122.70096910   187.25713881
 H      1   2   3     1.094899046077   110.60116628    58.08460252
 H      1   2   3     1.095261997926   111.24215826   297.79538611
 H      1   2   3     1.094639107743   111.51224075   177.09963316
 H      2   1   3     1.095657577211   108.07878105   243.11782334
 H      3   2   1     1.095210438226   111.43237591    62.30681607
 H      3   2   1     1.095276966023   110.52860221   302.30640348
 H      3   2   1     1.094911601318   110.97655958   182.90158328
 H      4   2   1     1.097857738143   109.49312922   296.72986935
 H      4   2   1     1.098045323928   109.98113291   180.66617580
 H      6   5   4     1.087596080445   120.27986322     1.88797466
 H      7   6   5     1.088176759814   118.42658827   180.01256479
 H      9   8   7     1.088632899282   120.72408072   180.33017648
 H     10   9   8     1.088838616554   119.00576528   180.05085388
 H     11   8   7     1.098514017617   107.82851498     1.60169337
 H     12  11   8     1.095494589033   111.73864193    63.64514186
 H     12  11   8     1.095578200723   110.87819736   303.20408023
 H     12  11   8     1.095552750852   111.29575597   183.18075441
 H     14  13  11     0.974046914168   114.99964197     0.00000000

---------------------------
INTERNAL COORDINATES (A.U.)
---------------------------
 C      0   0   0     0.000000000000     0.00000000     0.00000000
 C      1   0   0     2.892744928231     0.00000000     0.00000000
 C      2   1   0     2.892133402519   109.69319757     0.00000000
 C      2   1   3     2.916645293061   111.75390370   122.97659260
 C      4   2   1     2.861236615315   113.17224034    59.62897433
 C      5   4   2     2.644649926994   120.80003733    62.12774448
 C      6   5   4     2.642382401872   120.62185491   182.10546629
 C      7   6   5     2.650325672599   120.71853495   358.72101334
 C      8   7   6     2.652101864122   118.41616767     1.00540452
 C      9   8   7     2.639147302177   120.80897981   359.62112357
 C      8   7   6     2.879809990385   119.80454381   183.53472139
 C     11   8   7     2.896757393604   109.78111772   118.50890178
 C     11   8   7     2.885438738654   117.18028431   244.06325010
 O     13  11   8     2.556026545223   116.79212193     9.24179940
 O     13  11   8     2.313803096692   122.70096910   187.25713881
 H      1   2   3     2.069059341377   110.60116628    58.08460252
 H      1   2   3     2.069745220971   111.24215826   297.79538611
 H      1   2   3     2.068568129114   111.51224075   177.09963316
 H      2   1   3     2.070492757485   108.07878105   243.11782334
 H      3   2   1     2.069647787260   111.43237591    62.30681607
 H      3   2   1     2.069773506575   110.52860221   302.30640348
 H      3   2   1     2.069083067344   110.97655958   182.90158328
 H      4   2   1     2.074650459096   109.49312922   296.72986935
 H      4   2   1     2.075004944857   109.98113291   180.66617580
 H      6   5   4     2.055258736368   120.27986322     1.88797466
 H      7   6   5     2.056356061347   118.42658827   180.01256479
 H      9   8   7     2.057218040020   120.72408072   180.33017648
 H     10   9   8     2.057606789325   119.00576528   180.05085388
 H     11   8   7     2.075890647569   107.82851498     1.60169337
 H     12  11   8     2.070184754464   111.73864193    63.64514186
 H     12  11   8     2.070342757661   110.87819736   303.20408023
 H     12  11   8     2.070294664375   111.29575597   183.18075441
 H     14  13  11     1.840681909368   114.99964197     0.00000000

---------------------
BASIS SET INFORMATION
---------------------
There are 3 groups of distinct atoms

 Group   1 Type C   : 6s3p contracted to 2s1p pattern {33/3}
 Group   2 Type O   : 6s3p contracted to 2s1p pattern {33/3}
 Group   3 Type H   : 3s contracted to 1s pattern {3}

Atom   0C    basis set group =>   1
Atom   1C    basis set group =>   1
Atom   2C    basis set group =>   1
Atom   3C    basis set group =>   1
Atom   4C    basis set group =>   1
Atom   5C    basis set group =>   1
Atom   6C    basis set group =>   1
Atom   7C    basis set group =>   1
Atom   8C    basis set group =>   1
Atom   9C    basis set group =>   1
Atom  10C    basis set group =>   1
Atom  11C    basis set group =>   1
Atom  12C    basis set group =>   1
Atom  13O    basis set group =>   2
Atom  14O    basis set group =>   2
Atom  15H    basis set group =>   3
Atom  16H    basis set group =>   3
Atom  17H    basis set group =>   3
Atom  18H    basis set group =>   3
Atom  19H    basis set group =>   3
Atom  20H    basis set group =>   3
Atom  21H    basis set group =>   3
Atom  22H    basis set group =>   3
Atom  23H    basis set group =>   3
Atom  24H    basis set group =>   3
Atom  25H    basis set group =>   3
Atom  26H    basis set group =>   3
Atom  27H    basis set group =>   3
Atom  28H    basis set group =>   3
Atom  29H    basis set group =>   3
Atom  30H    basis set group =>   3
Atom  31H    basis set group =>   3
Atom  32H    basis set group =>   3
---------------------------------
AUXILIARY/J BASIS SET INFORMATION
---------------------------------
There are 3 groups of distinct atoms

 Group   1 Type C   : 12s5p4d2f1g contracted to 6s4p3d1f1g pattern {711111/2111/211/2/1}
 Group   2 Type O   : 12s5p4d2f1g contracted to 6s4p3d1f1g pattern {711111/2111/211/2/1}
 Group   3 Type H   : 5s2p1d contracted to 3s1p1d pattern {311/2/1}

Atom   0C    basis set group =>   1
Atom   1C    basis set group =>   1
Atom   2C    basis set group =>   1
Atom   3C    basis set group =>   1
Atom   4C    basis set group =>   1
Atom   5C    basis set group =>   1
Atom   6C    basis set group =>   1
Atom   7C    basis set group =>   1
Atom   8C    basis set group =>   1
Atom   9C    basis set group =>   1
Atom  10C    basis set group =>   1
Atom  11C    basis set group =>   1
Atom  12C    basis set group =>   1
Atom  13O    basis set group =>   2
Atom  14O    basis set group =>   2
Atom  15H    basis set group =>   3
Atom  16H    basis set group =>   3
Atom  17H    basis set group =>   3
Atom  18H    basis set group =>   3
Atom  19H    basis set group =>   3
Atom  20H    basis set group =>   3
Atom  21H    basis set group =>   3
Atom  22H    basis set group =>   3
Atom  23H    basis set group =>   3
Atom  24H    basis set group =>   3
Atom  25H    basis set group =>   3
Atom  26H    basis set group =>   3
Atom  27H    basis set group =>   3
Atom  28H    basis set group =>   3
Atom  29H    basis set group =>   3
Atom  30H    basis set group =>   3
Atom  31H    basis set group =>   3
Atom  32H    basis set group =>   3
------------------------------------------------------------------------------
                             ORCA STARTUP CALCULATIONS
                           -- RI-GTO INTEGRALS CHOSEN --
------------------------------------------------------------------------------
------------------------------------------------------------------------------
                   ___                                                        
                  /   \      - P O W E R E D   B Y -                         
                 /     \                                                     
                 |  |  |   _    _      __       _____    __    __             
                 |  |  |  | |  | |    /  \     |  _  \  |  |  /  |          
                  \  \/   | |  | |   /    \    | | | |  |  | /  /          
                 / \  \   | |__| |  /  /\  \   | |_| |  |  |/  /          
                |  |  |   |  __  | /  /__\  \  |    /   |      \           
                |  |  |   | |  | | |   __   |  |    \   |  |\   \          
                \     /   | |  | | |  |  |  |  | |\  \  |  | \   \       
                 \___/    |_|  |_| |__|  |__|  |_| \__\ |__|  \__/        
                                                                              
                      - O R C A' S   B I G   F R I E N D -                    
                                      &                                       
                       - I N T E G R A L  F E E D E R -                       
                                                                              
 v1 FN, 2020, v2 2021, v3 2022-2024                                           
------------------------------------------------------------------------------


----------------------
SHARK INTEGRAL PACKAGE
----------------------

Number of atoms                             ...     33
Number of basis functions                   ...     93
Number of shells                            ...     63
Maximum angular momentum                    ...      1
Integral batch strategy                     ... SHARK/LIBINT Hybrid
RI-J (if used) integral strategy            ... SPLIT-RIJ (Revised 2003 algorithm where possible)
Printlevel                                  ...      1
Contraction scheme used                     ... SEGMENTED contraction
Prescreening option                         ... SCHWARTZ
   Thresh                                   ... 2.500e-11
   Tcut                                     ... 2.500e-12
   Tpresel                                  ... 2.500e-12 
Coulomb Range Separation                    ... NOT USED
Exchange Range Separation                   ... NOT USED
Multipole approximations                    ... NOT USED
Finite Nucleus Model                        ... NOT USED
CABS basis                                  ... NOT available
Auxiliary Coulomb fitting basis             ... AVAILABLE
   # of basis functions in Aux-J            ...    933
   # of shells in Aux-J                     ...    315
   Maximum angular momentum in Aux-J        ...      4
Auxiliary J/K fitting basis                 ... NOT available
Auxiliary Correlation fitting basis         ... NOT available
Auxiliary 'external' fitting basis          ... NOT available

Checking pre-screening integrals            ... done (  0.0 sec) Dimension = 63
Check shell pair data                       ... done (  0.0 sec)
Shell pair information
Shell pair cut-off parameter TPreSel        ...   2.5e-12
Total number of shell pairs                 ...      2016
Shell pairs after pre-screening             ...      1680
Total number of primitive shell pairs       ...     18144
Primitive shell pairs kept                  ...      9967
          la=0 lb=0:    930 shell pairs
          la=1 lb=0:    637 shell pairs
          la=1 lb=1:    113 shell pairs

Calculating one electron integrals          ... done (  0.0 sec)
Calculating RI/J V-Matrix + Cholesky decomp.... done (  0.0 sec)
Calculating Nuclear repulsion               ... done (  0.0 sec) ENN=    969.196472731820 Eh

Diagonalization of the overlap matrix:
Smallest eigenvalue                        ... 1.738e-01
Time for diagonalization                   ...    0.000 sec
Threshold for overlap eigenvalues          ... 1.000e-07
Number of eigenvalues below threshold      ... 0
Time for construction of square roots      ...    0.002 sec
Total time needed                          ...    0.002 sec

-------------------
DFT GRID GENERATION
-------------------

General Integration Accuracy     IntAcc      ... 4.388
Radial Grid Type                 RadialGrid  ... OptM3 with GC (2021)
Angular Grid (max. ang.)         AngularGrid ... 4 (Lebedev-302)
Angular grid pruning method      GridPruning ... 4 (adaptive)
Weight generation scheme         WeightScheme... mBecke (2022)
Basis function cutoff            BFCut       ... 1.0000e-11
Integration weight cutoff        WCut        ... 1.0000e-14
Partially contracted basis set               ... off
Rotationally invariant grid construction     ... off
Angular grids for H and He will be reduced by one unit

Total number of grid points                  ...   146920
Total number of batches                      ...     2310
Average number of points per batch           ...       63
Average number of grid points per atom       ...     4452
Initializing property integral containers    ... done (  0.0 sec)

SHARK setup successfully completed in   0.8 seconds

Maximum memory used throughout the entire STARTUP-calculation: 51.7 MB
-------------------------------------------------------------------------------
                                 ORCA GUESS
                   Start orbitals & Density for SCF / CASSCF
-------------------------------------------------------------------------------

------------
SCF SETTINGS
------------
Hamiltonian:
 Density Functional     Method          .... DFT(GTOs)
 Exchange Functional    Exchange        .... PBE
   PBE kappa parameter   XKappa         ....  0.804000
   PBE mue parameter    XMuePBE         ....  0.219520
 Correlation Functional Correlation     .... PBE
   PBE beta parameter  CBetaPBE         ....  0.066725
 LDA part of GGA corr.  LDAOpt          .... PW91-LDA
 Gradients option       PostSCFGGA      .... off
   NL short-range parameter             ....  6.400000
 RI-approximation to the Coulomb term is turned on
   Number of AuxJ basis functions       .... 933


General Settings:
 Integral files         IntName         .... Ibuprofen\Ibuprofen_PBE_STO-3G\Ibuprofen_PBE_STO-3G.orcainp
 Hartree-Fock type      HFTyp           .... RHF
 Total Charge           Charge          ....    0
 Multiplicity           Mult            ....    1
 Number of Electrons    NEL             ....  112
 Basis Dimension        Dim             ....   93
 Nuclear Repulsion      ENuc            ....    969.1964727318 Eh

Convergence Acceleration:
 AO-DIIS                CNVDIIS         .... on
   Start iteration      DIISMaxIt       ....    12
   Startup error        DIISStart       ....  0.200000
   # of expansion vecs  DIISMaxEq       ....     5
   Bias factor          DIISBfac        ....   1.050
   Max. coefficient     DIISMaxC        ....  10.000
 MO-DIIS                CNVKDIIS        .... off
 Trust-Rad. Augm. Hess. CNVTRAH         .... auto
   Auto Start mean grad. ratio tolernc. ....  1.125000
   Auto Start start iteration           ....    50
   Auto Start num. interpolation iter.  ....    10
   Max. Number of Micro iterations      ....    24
   Max. Number of Macro iterations      .... Maxiter - #DIIS iter
   Number of Davidson start vectors     ....     2
   Converg. threshold    (grad. norm)   ....   1.000e-05
   Grad. Scal. Fac. for Micro threshold ....   0.100
   Minimum threshold for Micro iter.    ....   1.000e-02
   NR start threshold (gradient norm)   ....   1.000e-04
   Initial trust radius                 ....   0.400
   Minimum AH scaling param. (alpha)    ....   1.000
   Maximum AH scaling param. (alpha)    .... 1000.000
   Quad. conv. algorithm                .... NR
   White noise on init. David. guess    .... on
   Maximum white noise                  ....   0.010
   Pseudo random numbers                .... off
   Inactive MOs                         .... canonical
   Orbital update algorithm             .... Taylor
   Preconditioner                       .... Diag
   Full preconditioner red. dimension   ....   250
 SOSCF                  CNVSOSCF        .... on
   Start iteration      SOSCFMaxIt      ....   150
   Startup grad/error   SOSCFStart      ....  0.003300
   Hessian update       SOSCFHessUp     .... L-BFGS
 Level Shifting         CNVShift        .... on
   Level shift para.    LevelShift      ....    0.2500
   Turn off err/grad.   ShiftErr        ....    0.0010
 Zerner damping         CNVZerner       .... off
 Static damping         CNVDamp         .... on
   Fraction old density DampFac         ....    0.7000
   Max. Damping (<1)    DampMax         ....    0.9800
   Min. Damping (>=0)   DampMin         ....    0.0000
   Turn off err/grad.   DampErr         ....    0.1000

SCF Procedure:
 Maximum # iterations   MaxIter         ....   125
 SCF integral mode      SCFMode         .... Direct
   Integral package                     .... SHARK and LIBINT hybrid scheme
 Reset frequency        DirectResetFreq ....    20
 Integral Threshold     Thresh          ....  2.500e-11 Eh
 Primitive CutOff       TCut            ....  2.500e-12 Eh

Convergence Tolerance:
 Convergence Check Mode ConvCheckMode   .... Total+1el-Energy
 Convergence forced     ConvForced      .... 0
 Energy Change          TolE            ....  1.000e-08 Eh
 1-El. energy change                    ....  1.000e-05 Eh
 Orbital Gradient       TolG            ....  1.000e-05
 Orbital Rotation angle TolX            ....  1.000e-05
 DIIS Error             TolErr          ....  5.000e-07

------------------------------
INITIAL GUESS: MODEL POTENTIAL
------------------------------
Loading Hartree-Fock densities                     ... done
Calculating cut-offs                               ... done
Initializing the effective Hamiltonian             ... done
Setting up the integral package (SHARK)            ... done
Starting the Coulomb interaction                   ... done (   0.1 sec)
Making the grid                                    ... done (   0.2 sec)
Mapping shells                                     ... done
Starting the XC term evaluation                    ... done (   0.1 sec)
  promolecular density results
     # of electrons  =    111.995808042
     EX              =    -88.096107445
     EC              =     -3.713884996
     EX+EC           =    -91.809992441
Transforming the Hamiltonian                       ... done (   0.0 sec)
Diagonalizing the Hamiltonian                      ... done (   0.0 sec)
Back transforming the eigenvectors                 ... done (   0.0 sec)
Now organizing SCF variables                       ... done
                      ------------------
                      INITIAL GUESS DONE (   0.4 sec)
                      ------------------
             **** ENERGY FILE WAS UPDATED (Ibuprofen\Ibuprofen_PBE_STO-3G\Ibuprofen_PBE_STO-3G.orcainp.en.tmp) ****
Finished Guess after   0.4 sec
Maximum memory used throughout the entire GUESS-calculation: 21.5 MB

-------------------------------------------------------------------------------------------
                                      ORCA LEAN-SCF
                              memory conserving SCF solver
-------------------------------------------------------------------------------------------

--------------------
CPCM SOLVATION MODEL
--------------------
CPCM parameters:
  Epsilon                                         ...      80.1510
  Refrac                                          ...       1.3328
  Rsolv                                           ...       1.3000
  Surface type                                    ... GAUSSIAN VDW
  Discretization scheme                           ... Constant charge density
    Threshold for H atoms                         ...       5.0000 (charges/Ang^2)
    Threshold for non-H atoms                     ...       5.0000 (charges/Ang^2)
  Epsilon function type                           ...         CPCM
Solvent:                                          ... WATER
Radii:
  Scheme                                          ... Element-dependent radii
  Radius for C  used is    3.8550 Bohr (=   2.0400 Ang.)
  Radius for O  used is    3.4469 Bohr (=   1.8240 Ang.)
  Radius for H  used is    2.4944 Bohr (=   1.3200 Ang.)
Calculating surface                               ...        done! (  0.0s)
Cavity surface points                             ...         2777
Cavity Volume                                     ...    1837.0921
Cavity Surface-area                               ...     985.9078
Calculating surface distance matrix               ...        done! (  0.0s)
Performing Cholesky decomposition & store         ...        done! (  0.1s)
Overall time for CPCM initialization              ...                 0.2s

----------------------------------------D-I-I-S--------------------------------------------
Iteration    Energy (Eh)           Delta-E    RMSDP     MaxDP     DIISErr   Damp  Time(sec)
-------------------------------------------------------------------------------------------
               ***  Starting incremental Fock matrix formation  ***
    1    -647.4984496133801031     0.00e+00  6.91e-03  1.41e-01  2.14e-01  0.700   0.8
    2    -647.5840898643947412    -8.56e-02  4.53e-03  8.83e-02  7.68e-02  0.700   0.8
                               ***Turning on AO-DIIS***
    3    -647.6128382063355957    -2.87e-02  1.77e-03  2.79e-02  4.32e-02  0.700   0.8
    4    -647.6313630008002065    -1.85e-02  2.45e-03  3.78e-02  2.03e-02  0.000   0.8
    5    -647.6719362986713122    -4.06e-02  6.73e-04  9.18e-03  9.65e-03  0.000   0.8
                              *** Initializing SOSCF ***
---------------------------------------S-O-S-C-F--------------------------------------
Iteration    Energy (Eh)           Delta-E    RMSDP     MaxDP     MaxGrad    Time(sec)
--------------------------------------------------------------------------------------
    6    -647.6725097641113962    -5.73e-04  1.64e-04  2.87e-03  2.41e-03     0.8
               *** Restarting incremental Fock matrix formation ***
    7    -647.6725423515930515    -3.26e-05  1.07e-04  1.45e-03  2.10e-04     0.8
    8    -647.6725427474567596    -3.96e-07  5.29e-05  7.54e-04  2.24e-04     0.7
    9    -647.6725449249523763    -2.18e-06  3.77e-05  9.38e-04  1.74e-04     0.7
   10    -647.6725444740360444     4.51e-07  2.57e-05  7.46e-04  3.33e-04     0.7
   11    -647.6725450831974058    -6.09e-07  1.57e-05  2.52e-04  4.33e-05     0.7
   12    -647.6725450116429101     7.16e-08  1.04e-05  1.87e-04  6.00e-05     0.7
   13    -647.6725451173523425    -1.06e-07  2.88e-06  4.79e-05  6.99e-06     0.7
   14    -647.6725451181581548    -8.06e-10  1.75e-06  3.00e-05  1.01e-05     0.7
                 **** Energy Check signals convergence ****

               *****************************************************
               *                     SUCCESS                       *
               *           SCF CONVERGED AFTER  14 CYCLES          *
               *****************************************************

             **** ENERGY FILE WAS UPDATED (Ibuprofen\Ibuprofen_PBE_STO-3G\Ibuprofen_PBE_STO-3G.orcainp.en.tmp) ****

----------------
TOTAL SCF ENERGY
----------------

Total Energy       :       -647.67254511815815 Eh          -17624.06594 eV

Components:
Nuclear Repulsion  :        969.19647273182011 Eh           26373.17681 eV
Electronic Energy  :      -1616.86041215616638 Eh          -43997.00858 eV
One Electron Energy:      -2807.06513681838351 Eh          -76384.12567 eV
Two Electron Energy:       1190.20472466221713 Eh           32387.11709 eV
CPCM Dielectric    :         -0.00860569381184 Eh              -0.23417 eV

Virial components:
Potential Energy   :      -1285.62185250246375 Eh          -34983.54914 eV
Kinetic Energy     :        637.94930738430571 Eh           17359.48319 eV
Virial Ratio       :          2.01524139554868

DFT components:
N(Alpha)           :       56.000022287430 electrons
N(Beta)            :       56.000022287430 electrons
N(Total)           :      112.000044574860 electrons
E(X)               :      -89.916166060062 Eh       
E(C)               :       -3.835553681285 Eh       
E(XC)              :      -93.751719741347 Eh       

CPCM Solvation Model Properties:
Surface-charge          :         -0.01361411277329
Corrected charge        :         -0.00000000000000
Outlying charge corr.   :          0.00001080763876 Eh               0.00029 eV
Free-energy (cav+disp)  :  This term is not implemented in the current solvation scheme

---------------
SCF CONVERGENCE
---------------

  Last Energy change         ...    8.0581e-10  Tolerance :   1.0000e-08
  Last MAX-Density change    ...    3.0036e-05  Tolerance :   1.0000e-07
  Last RMS-Density change    ...    1.7506e-06  Tolerance :   5.0000e-09
  Last DIIS Error            ...    2.4077e-03  Tolerance :   5.0000e-07
  Last Orbital Gradient      ...    1.0083e-05  Tolerance :   1.0000e-05
  Last Orbital Rotation      ...    1.5542e-05  Tolerance :   1.0000e-05


----------------
ORBITAL ENERGIES
----------------

  NO   OCC          E(Eh)            E(eV) 
   0   2.0000     -18.553223      -504.8589 
   1   2.0000     -18.475747      -502.7506 
   2   2.0000      -9.805322      -266.8164 
   3   2.0000      -9.736967      -264.9563 
   4   2.0000      -9.725920      -264.6557 
   5   2.0000      -9.720976      -264.5212 
   6   2.0000      -9.719113      -264.4705 
   7   2.0000      -9.717767      -264.4339 
   8   2.0000      -9.711281      -264.2574 
   9   2.0000      -9.709129      -264.1988 
  10   2.0000      -9.708939      -264.1936 
  11   2.0000      -9.707275      -264.1484 
  12   2.0000      -9.706874      -264.1375 
  13   2.0000      -9.700439      -263.9624 
  14   2.0000      -9.699383      -263.9336 
  15   2.0000      -0.940644       -25.5962 
  16   2.0000      -0.860351       -23.4113 
  17   2.0000      -0.740878       -20.1603 
  18   2.0000      -0.700433       -19.0597 
  19   2.0000      -0.675706       -18.3869 
  20   2.0000      -0.630547       -17.1581 
  21   2.0000      -0.626617       -17.0511 
  22   2.0000      -0.576228       -15.6800 
  23   2.0000      -0.570153       -15.5147 
  24   2.0000      -0.539790       -14.6884 
  25   2.0000      -0.506684       -13.7876 
  26   2.0000      -0.489333       -13.3154 
  27   2.0000      -0.477342       -12.9891 
  28   2.0000      -0.461862       -12.5679 
  29   2.0000      -0.419013       -11.4019 
  30   2.0000      -0.394365       -10.7312 
  31   2.0000      -0.380508       -10.3541 
  32   2.0000      -0.364631        -9.9221 
  33   2.0000      -0.353321        -9.6143 
  34   2.0000      -0.345968        -9.4143 
  35   2.0000      -0.342102        -9.3091 
  36   2.0000      -0.326793        -8.8925 
  37   2.0000      -0.324069        -8.8184 
  38   2.0000      -0.311459        -8.4752 
  39   2.0000      -0.297659        -8.0997 
  40   2.0000      -0.295801        -8.0492 
  41   2.0000      -0.290895        -7.9157 
  42   2.0000      -0.283242        -7.7074 
  43   2.0000      -0.273179        -7.4336 
  44   2.0000      -0.263305        -7.1649 
  45   2.0000      -0.258461        -7.0331 
  46   2.0000      -0.245275        -6.6743 
  47   2.0000      -0.243267        -6.6196 
  48   2.0000      -0.239963        -6.5297 
  49   2.0000      -0.234994        -6.3945 
  50   2.0000      -0.224881        -6.1193 
  51   2.0000      -0.192791        -5.2461 
  52   2.0000      -0.164706        -4.4819 
  53   2.0000      -0.155911        -4.2426 
  54   2.0000      -0.135687        -3.6922 
  55   2.0000      -0.090711        -2.4684 
  56   0.0000       0.056061         1.5255 
  57   0.0000       0.059558         1.6206 
  58   0.0000       0.090410         2.4602 
  59   0.0000       0.199447         5.4272 
  60   0.0000       0.273914         7.4536 
  61   0.0000       0.287151         7.8138 
  62   0.0000       0.308112         8.3841 
  63   0.0000       0.318134         8.6569 
  64   0.0000       0.323933         8.8147 
  65   0.0000       0.339152         9.2288 
  66   0.0000       0.355632         9.6772 
*Only the first 10 virtual orbitals were printed.

                    ********************************
                    * MULLIKEN POPULATION ANALYSIS *
                    ********************************

-----------------------
MULLIKEN ATOMIC CHARGES
-----------------------
   0 C :   -0.243950
   1 C :   -0.052923
   2 C :   -0.242860
   3 C :   -0.154911
   4 C :   -0.003626
   5 C :   -0.097674
   6 C :   -0.095909
   7 C :   -0.022885
   8 C :   -0.103101
   9 C :   -0.096292
  10 C :   -0.097336
  11 C :   -0.238742
  12 C :    0.203305
  13 O :   -0.237970
  14 O :   -0.231146
  15 H :    0.080079
  16 H :    0.078965
  17 H :    0.080167
  18 H :    0.080779
  19 H :    0.079397
  20 H :    0.080677
  21 H :    0.079570
  22 H :    0.084699
  23 H :    0.088060
  24 H :    0.091802
  25 H :    0.091995
  26 H :    0.092622
  27 H :    0.091483
  28 H :    0.101126
  29 H :    0.086041
  30 H :    0.087094
  31 H :    0.088082
  32 H :    0.253379
Sum of atomic charges:   -0.0000000

--------------------------------
MULLIKEN REDUCED ORBITAL CHARGES
--------------------------------
  0 C s       :     3.195133  s :     3.195133
      pz      :     0.997252  p :     3.048816
      px      :     1.035526
      py      :     1.016039

  1 C s       :     3.171412  s :     3.171412
      pz      :     0.933887  p :     2.881510
      px      :     0.952027
      py      :     0.995596

  2 C s       :     3.195690  s :     3.195690
      pz      :     1.039303  p :     3.047170
      px      :     0.968864
      py      :     1.039003

  3 C s       :     3.186818  s :     3.186818
      pz      :     0.984877  p :     2.968093
      px      :     0.948290
      py      :     1.034926

  4 C s       :     3.134641  s :     3.134641
      pz      :     0.979616  p :     2.868985
      px      :     0.939829
      py      :     0.949541

  5 C s       :     3.148092  s :     3.148092
      pz      :     1.007711  p :     2.949582
      px      :     0.957149
      py      :     0.984723

  6 C s       :     3.150545  s :     3.150545
      pz      :     1.006786  p :     2.945365
      px      :     0.965278
      py      :     0.973300

  7 C s       :     3.138487  s :     3.138487
      pz      :     1.005522  p :     2.884398
      px      :     0.926751
      py      :     0.952124

  8 C s       :     3.149641  s :     3.149641
      pz      :     1.009773  p :     2.953460
      px      :     0.960551
      py      :     0.983136

  9 C s       :     3.148793  s :     3.148793
      pz      :     1.008976  p :     2.947499
      px      :     0.962396
      py      :     0.976127

 10 C s       :     3.178164  s :     3.178164
      pz      :     0.962948  p :     2.919172
      px      :     0.937877
      py      :     1.018347

 11 C s       :     3.197427  s :     3.197427
      pz      :     0.968322  p :     3.041314
      px      :     1.040451
      py      :     1.032541

 12 C s       :     3.081120  s :     3.081120
      pz      :     0.897427  p :     2.715575
      px      :     0.833948
      py      :     0.984199

 13 O s       :     3.815896  s :     3.815896
      pz      :     1.517437  p :     4.422074
      px      :     1.220017
      py      :     1.684620

 14 O s       :     3.885364  s :     3.885364
      pz      :     1.689258  p :     4.345782
      px      :     1.272786
      py      :     1.383738

 15 H s       :     0.919921  s :     0.919921

 16 H s       :     0.921035  s :     0.921035

 17 H s       :     0.919833  s :     0.919833

 18 H s       :     0.919221  s :     0.919221

 19 H s       :     0.920603  s :     0.920603

 20 H s       :     0.919323  s :     0.919323

 21 H s       :     0.920430  s :     0.920430

 22 H s       :     0.915301  s :     0.915301

 23 H s       :     0.911940  s :     0.911940

 24 H s       :     0.908198  s :     0.908198

 25 H s       :     0.908005  s :     0.908005

 26 H s       :     0.907378  s :     0.907378

 27 H s       :     0.908517  s :     0.908517

 28 H s       :     0.898874  s :     0.898874

 29 H s       :     0.913959  s :     0.913959

 30 H s       :     0.912906  s :     0.912906

 31 H s       :     0.911918  s :     0.911918

 32 H s       :     0.746621  s :     0.746621



                     *******************************
                     * LOEWDIN POPULATION ANALYSIS *
                     *******************************

----------------------
LOEWDIN ATOMIC CHARGES
----------------------
   0 C :   -0.141293
   1 C :   -0.003850
   2 C :   -0.139685
   3 C :   -0.081786
   4 C :    0.005215
   5 C :   -0.061433
   6 C :   -0.059938
   7 C :   -0.015486
   8 C :   -0.065937
   9 C :   -0.060664
  10 C :   -0.059257
  11 C :   -0.131952
  12 C :    0.121788
  13 O :   -0.128804
  14 O :   -0.181747
  15 H :    0.044444
  16 H :    0.043373
  17 H :    0.044429
  18 H :    0.040765
  19 H :    0.043602
  20 H :    0.044916
  21 H :    0.043793
  22 H :    0.046362
  23 H :    0.049802
  24 H :    0.052154
  25 H :    0.052163
  26 H :    0.052836
  27 H :    0.051834
  28 H :    0.059860
  29 H :    0.048826
  30 H :    0.049582
  31 H :    0.050526
  32 H :    0.185560

-------------------------------
LOEWDIN REDUCED ORBITAL CHARGES
-------------------------------
  0 C s       :     3.015459  s :     3.015459
      pz      :     1.027637  p :     3.125834
      px      :     1.056464
      py      :     1.041733

  1 C s       :     3.024302  s :     3.024302
      pz      :     0.972461  p :     2.979548
      px      :     0.987781
      py      :     1.019307

  2 C s       :     3.015832  s :     3.015832
      pz      :     1.058869  p :     3.123853
      px      :     1.006339
      py      :     1.058645

  3 C s       :     3.024710  s :     3.024710
      pz      :     1.013649  p :     3.057076
      px      :     0.988646
      py      :     1.054781

  4 C s       :     3.028066  s :     3.028066
      pz      :     0.980441  p :     2.966719
      px      :     0.984328
      py      :     1.001950

  5 C s       :     3.025434  s :     3.025434
      pz      :     1.008640  p :     3.035999
      px      :     1.008732
      py      :     1.018627

  6 C s       :     3.028012  s :     3.028012
      pz      :     1.008016  p :     3.031926
      px      :     1.013096
      py      :     1.010814

  7 C s       :     3.032546  s :     3.032546
      pz      :     1.006422  p :     2.982940
      px      :     0.972884
      py      :     1.003635

  8 C s       :     3.026589  s :     3.026589
      pz      :     1.010814  p :     3.039348
      px      :     1.011606
      py      :     1.016928

  9 C s       :     3.026261  s :     3.026261
      pz      :     1.010200  p :     3.034403
      px      :     1.010715
      py      :     1.013488

 10 C s       :     3.035302  s :     3.035302
      pz      :     1.003491  p :     3.023954
      px      :     0.978610
      py      :     1.041854

 11 C s       :     3.016308  s :     3.016308
      pz      :     1.002136  p :     3.115644
      px      :     1.059795
      py      :     1.053713

 12 C s       :     3.044494  s :     3.044494
      pz      :     0.933983  p :     2.833718
      px      :     0.907216
      py      :     0.992518

 13 O s       :     3.668624  s :     3.668624
      pz      :     1.537054  p :     4.460180
      px      :     1.234912
      py      :     1.688214

 14 O s       :     3.770281  s :     3.770281
      pz      :     1.696591  p :     4.411467
      px      :     1.325708
      py      :     1.389167

 15 H s       :     0.955556  s :     0.955556

 16 H s       :     0.956627  s :     0.956627

 17 H s       :     0.955571  s :     0.955571

 18 H s       :     0.959235  s :     0.959235

 19 H s       :     0.956398  s :     0.956398

 20 H s       :     0.955084  s :     0.955084

 21 H s       :     0.956207  s :     0.956207

 22 H s       :     0.953638  s :     0.953638

 23 H s       :     0.950198  s :     0.950198

 24 H s       :     0.947846  s :     0.947846

 25 H s       :     0.947837  s :     0.947837

 26 H s       :     0.947164  s :     0.947164

 27 H s       :     0.948166  s :     0.948166

 28 H s       :     0.940140  s :     0.940140

 29 H s       :     0.951174  s :     0.951174

 30 H s       :     0.950418  s :     0.950418

 31 H s       :     0.949474  s :     0.949474

 32 H s       :     0.814440  s :     0.814440



                      *****************************
                      * MAYER POPULATION ANALYSIS *
                      *****************************

  NA   - Mulliken gross atomic population
  ZA   - Total nuclear charge
  QA   - Mulliken gross atomic charge
  VA   - Mayer's total valence
  BVA  - Mayer's bonded valence
  FA   - Mayer's free valence

  ATOM       NA         ZA         QA         VA         BVA        FA
  0 C      6.2439     6.0000    -0.2439     3.9565     3.9565    -0.0000
  1 C      6.0529     6.0000    -0.0529     3.9606     3.9606    -0.0000
  2 C      6.2429     6.0000    -0.2429     3.9563     3.9563    -0.0000
  3 C      6.1549     6.0000    -0.1549     3.9571     3.9571    -0.0000
  4 C      6.0036     6.0000    -0.0036     3.9748     3.9748     0.0000
  5 C      6.0977     6.0000    -0.0977     3.9698     3.9698    -0.0000
  6 C      6.0959     6.0000    -0.0959     3.9687     3.9687    -0.0000
  7 C      6.0229     6.0000    -0.0229     3.9726     3.9726    -0.0000
  8 C      6.1031     6.0000    -0.1031     3.9693     3.9693     0.0000
  9 C      6.0963     6.0000    -0.0963     3.9692     3.9692     0.0000
 10 C      6.0973     6.0000    -0.0973     3.9604     3.9604     0.0000
 11 C      6.2387     6.0000    -0.2387     3.9510     3.9510    -0.0000
 12 C      5.7967     6.0000     0.2033     3.9182     3.9182     0.0000
 13 O      8.2380     8.0000    -0.2380     2.3334     2.3334     0.0000
 14 O      8.2311     8.0000    -0.2311     2.2898     2.2898    -0.0000
 15 H      0.9199     1.0000     0.0801     0.9936     0.9936    -0.0000
 16 H      0.9210     1.0000     0.0790     0.9938     0.9938     0.0000
 17 H      0.9198     1.0000     0.0802     0.9936     0.9936    -0.0000
 18 H      0.9192     1.0000     0.0808     0.9935     0.9935     0.0000
 19 H      0.9206     1.0000     0.0794     0.9937     0.9937     0.0000
 20 H      0.9193     1.0000     0.0807     0.9935     0.9935     0.0000
 21 H      0.9204     1.0000     0.0796     0.9937     0.9937     0.0000
 22 H      0.9153     1.0000     0.0847     0.9928     0.9928     0.0000
 23 H      0.9119     1.0000     0.0881     0.9922     0.9922    -0.0000
 24 H      0.9082     1.0000     0.0918     0.9916     0.9916     0.0000
 25 H      0.9080     1.0000     0.0920     0.9915     0.9915     0.0000
 26 H      0.9074     1.0000     0.0926     0.9914     0.9914     0.0000
 27 H      0.9085     1.0000     0.0915     0.9916     0.9916     0.0000
 28 H      0.8989     1.0000     0.1011     0.9898     0.9898    -0.0000
 29 H      0.9140     1.0000     0.0860     0.9926     0.9926     0.0000
 30 H      0.9129     1.0000     0.0871     0.9924     0.9924     0.0000
 31 H      0.9119     1.0000     0.0881     0.9922     0.9922     0.0000
 32 H      0.7466     1.0000     0.2534     0.9358     0.9358     0.0000

  Mayer bond orders larger than 0.100000
B(  0-C ,  1-C ) :   0.9970 B(  0-C , 15-H ) :   0.9755 B(  0-C , 16-H ) :   0.9755 
B(  0-C , 17-H ) :   0.9738 B(  1-C ,  2-C ) :   0.9951 B(  1-C ,  3-C ) :   0.9697 
B(  1-C , 18-H ) :   0.9536 B(  2-C , 19-H ) :   0.9754 B(  2-C , 20-H ) :   0.9750 
B(  2-C , 21-H ) :   0.9755 B(  3-C ,  4-C ) :   0.9978 B(  3-C , 22-H ) :   0.9628 
B(  3-C , 23-H ) :   0.9549 B(  4-C ,  5-C ) :   1.4004 B(  4-C ,  7-C ) :   0.1067 
B(  4-C ,  9-C ) :   1.4033 B(  5-C ,  6-C ) :   1.4427 B(  5-C ,  8-C ) :   0.1120 
B(  5-C , 24-H ) :   0.9568 B(  6-C ,  7-C ) :   1.3947 B(  6-C ,  9-C ) :   0.1099 
B(  6-C , 25-H ) :   0.9567 B(  7-C ,  8-C ) :   1.3911 B(  7-C , 10-C ) :   0.9855 
B(  8-C ,  9-C ) :   1.4390 B(  8-C , 26-H ) :   0.9561 B(  9-C , 27-H ) :   0.9569 
B( 10-C , 11-C ) :   0.9804 B( 10-C , 12-C ) :   0.8913 B( 10-C , 28-H ) :   0.9411 
B( 11-C , 29-H ) :   0.9736 B( 11-C , 30-H ) :   0.9741 B( 11-C , 31-H ) :   0.9710 
B( 12-C , 13-O ) :   1.1087 B( 12-C , 14-O ) :   1.8634 B( 13-O , 14-O ) :   0.2702 
B( 13-O , 32-H ) :   0.8726 

-------
TIMINGS
-------

Total SCF time: 0 days 0 hours 0 min 10 sec 

Total time                  ....      10.909 sec
Sum of individual times     ....      10.856 sec  ( 99.5%)

SCF preparation             ....       0.230 sec  (  2.1%)
Fock matrix formation       ....      10.509 sec  ( 96.3%)
  Startup                   ....       0.012 sec  (  0.1% of F)
  Split-RI-J                ....       2.443 sec  ( 23.2% of F)
  XC integration            ....       3.255 sec  ( 31.0% of F)
    Basis function eval.    ....       1.547 sec  ( 47.5% of XC)
    Density eval.           ....       0.540 sec  ( 16.6% of XC)
    XC-Functional eval.     ....       0.317 sec  (  9.7% of XC)
    XC-Potential eval.      ....       0.430 sec  ( 13.2% of XC)
  CPCM terms                ....       4.730 sec  ( 45.0% of F)
Diagonalization             ....       0.000 sec  (  0.0%)
Density matrix formation    ....       0.030 sec  (  0.3%)
Total Energy calculation    ....       0.017 sec  (  0.2%)
Population analysis         ....       0.008 sec  (  0.1%)
Orbital Transformation      ....       0.005 sec  (  0.0%)
Orbital Orthonormalization  ....       0.000 sec  (  0.0%)
DIIS solution               ....       0.030 sec  (  0.3%)
SOSCF solution              ....       0.027 sec  (  0.2%)
Finished LeanSCF after  11.0 sec

Maximum memory used throughout the entire LEANSCF-calculation: 66.2 MB

-------------------------   --------------------
FINAL SINGLE POINT ENERGY      -647.672545118158
-------------------------   --------------------

------------------------------------------------------------------------------
                         ORCA SCF GRADIENT CALCULATION
------------------------------------------------------------------------------

Nuc. rep. gradient        (SHARK) ... done (  0.0 sec)
HCore & Overlap gradient  (SHARK) ... done (  0.1 sec)
Split-RIJ-J gradient      (SHARK) ... done (  0.6 sec)
XC gradient                       ... done (  3.2 sec)
CPCM gradient                     ... done (  0.6 sec)

------------------
CARTESIAN GRADIENT
------------------

   1   C   :   -0.006236018   -0.005905420   -0.010000472
   2   C   :    0.002574441    0.001803157   -0.002538648
   3   C   :    0.012629154    0.003416805    0.001416691
   4   C   :    0.004704394   -0.001305953    0.009877906
   5   C   :    0.008228157   -0.002976504   -0.001019955
   6   C   :   -0.006250769    0.004889306   -0.001387916
   7   C   :    0.006080761    0.006076872    0.000483034
   8   C   :   -0.008309798    0.001087985   -0.004354729
   9   C   :    0.001601461   -0.006667268    0.001033060
  10   C   :   -0.004664219   -0.005722196   -0.000290584
  11   C   :    0.013457772    0.017363924    0.021522099
  12   C   :   -0.006473331   -0.006214818    0.016131408
  13   C   :    0.033241801    0.013356330    0.014383664
  14   O   :   -0.038152887   -0.043825140   -0.069628438
  15   O   :   -0.070035429   -0.016880705   -0.000595994
  16   H   :    0.004562331    0.003254001   -0.006995797
  17   H   :    0.003566715   -0.007503064    0.001332923
  18   H   :   -0.009020854   -0.000852718    0.001385696
  19   H   :   -0.006829471    0.011097589    0.000013602
  20   H   :    0.002756961   -0.007940551    0.001443647
  21   H   :    0.002427505    0.002862938   -0.007656633
  22   H   :    0.002548768    0.004968197    0.007082022
  23   H   :    0.002171164   -0.008624800   -0.000563042
  24   H   :    0.005670018    0.009048109    0.005149519
  25   H   :    0.006673862    0.011328484   -0.001571589
  26   H   :   -0.009881191    0.009064029   -0.000756291
  27   H   :   -0.007426918   -0.010332301    0.001351100
  28   H   :    0.008250343   -0.009080810    0.000699555
  29   H   :   -0.001797132    0.012102717    0.000961560
  30   H   :    0.004472655   -0.007261335   -0.000600837
  31   H   :    0.003625507    0.005002031    0.005449006
  32   H   :   -0.009192156    0.001447228   -0.001972381
  33   H   :    0.055026403    0.022923883    0.020216812

Difference to translation invariance:
           :    0.0000000000    0.0000000000   -0.0000000000

Difference to rotation invariance:
           :   -0.0001747838    0.0001463959   -0.0001599425

Norm of the Cartesian gradient     ...    0.1514961963
RMS gradient                       ...    0.0152259406
MAX gradient                       ...    0.0700354290

-------
TIMINGS
-------

Total SCF gradient time     ....        4.835 sec

One electron gradient       ....       0.104 sec  (  2.2%)
RI-J Coulomb gradient       ....       0.619 sec  ( 12.8%)
XC gradient                 ....       3.237 sec  ( 66.9%)
CPCM gradient               ....       0.582 sec  ( 12.0%)
   A-Matrix (El+Nuc)        ....       0.220 sec  (  4.6%)
   Potential                ....       0.362 sec  (  7.5%)

Maximum memory used throughout the entire SCFGRAD-calculation: 22.8 MB
------------------------------------------------------------------------------
                         ORCA GEOMETRY RELAXATION STEP
------------------------------------------------------------------------------

Reading the OPT-File                    .... done
Getting information on internals        .... done
Copying old internal coords+grads       .... done
Making the new internal coordinates     .... (2022 redundants) done
Validating the new internal coordinates .... (2022 redundants) done
Calculating the B-matrix                .... done
Calculating the G,G- and P matrices     .... done
Transforming gradient to internals      .... done
Projecting the internal gradient        .... done
Number of atoms                         ....  33
Number of internal coordinates          .... 157
Current Energy                          ....  -647.672545118 Eh
Current gradient norm                   ....     0.151496196 Eh/bohr
Maximum allowed component of the step   ....  0.300
Current trust radius                    ....  0.300
Evaluating the initial hessian          ....  (Almloef) done
Projecting the Hessian                  .... done
Forming the augmented Hessian           .... done
Diagonalizing the augmented Hessian     .... done
Last element of RFO vector              ....  0.960884600
Lowest eigenvalues of augmented Hessian:
 -0.039775241  0.001675292  0.010560106  0.010670023  0.010929282
Length of the computed step             ....  0.288223026
The final length of the internal step   ....  0.288223026
Converting the step to Cartesian space:
 Initial RMS(Int)=    0.0230027017
Transforming coordinates:
 Iter   0:  RMS(Cart)=    0.0764627343 RMS(Int)=    0.0233302765
 Iter   5:  RMS(Cart)=    0.0000004382 RMS(Int)=    0.0000002351
done
Storing new coordinates                 .... done

                                .--------------------.
          ----------------------|Geometry convergence|-------------------------
          Item                value                   Tolerance       Converged
          ---------------------------------------------------------------------
          RMS gradient        0.0118702255            0.0001000000      NO
          MAX gradient        0.0719211269            0.0003000000      NO
          RMS step            0.0230027017            0.0020000000      NO
          MAX step            0.1137704847            0.0040000000      NO
          ........................................................
          Max(Bonds)      0.0602      Max(Angles)    5.03
          Max(Dihed)        1.15      Max(Improp)    0.00
          ---------------------------------------------------------------------

The optimization has not yet converged - more geometry cycles are needed


    ---------------------------------------------------------------------------
                         Redundant Internal Coordinates
                            (Angstroem and degrees)

        Definition                    Value    dE/dq     Step     New-Value
    ----------------------------------------------------------------------------
     1. B(C   1,C   0)                1.5308 -0.019292  0.0247    1.5555   
     2. B(C   2,C   1)                1.5305 -0.020592  0.0264    1.5569   
     3. B(C   3,C   1)                1.5434 -0.017553  0.0235    1.5670   
     4. B(C   4,C   3)                1.5141 -0.021814  0.0266    1.5407   
     5. B(C   5,C   4)                1.3995 -0.022005  0.0182    1.4177   
     6. B(C   6,C   5)                1.3983 -0.015926  0.0130    1.4113   
     7. B(C   7,C   6)                1.4025 -0.019301  0.0160    1.4185   
     8. B(C   8,C   7)                1.4034 -0.018777  0.0156    1.4190   
     9. B(C   9,C   8)                1.3966 -0.018068  0.0148    1.4114   
    10. B(C   9,C   4)                1.3991 -0.021982  0.0182    1.4173   
    11. B(C  10,C   7)                1.5239 -0.016317  0.0206    1.5445   
    12. B(C  11,C  10)                1.5329 -0.021510  0.0278    1.5607   
    13. B(C  12,C  10)                1.5269 -0.047481  0.0602    1.5871   
    14. B(O  13,C  12)                1.3526 -0.054043  0.0419    1.3945   
    15. B(O  14,C  12)                1.2244 -0.071921  0.0356    1.2600   
    16. B(H  15,C   0)                1.0949 -0.008779  0.0118    1.1067   
    17. B(H  16,C   0)                1.0953 -0.008380  0.0113    1.1065   
    18. B(H  17,C   0)                1.0946 -0.008887  0.0118    1.1065   
    19. B(H  18,C   1)                1.0957 -0.012714  0.0171    1.1128   
    20. B(H  19,C   2)                1.0952 -0.008459  0.0114    1.1066   
[...]
      pz      :     1.032631  p :     3.029377
      px      :     0.966070
      py      :     1.030676

  3 C s       :     3.202495  s :     3.202495
      pz      :     0.977218  p :     2.946329
      px      :     0.938332
      py      :     1.030779

  4 C s       :     3.156082  s :     3.156082
      pz      :     0.974376  p :     2.846672
      px      :     0.932789
      py      :     0.939508

  5 C s       :     3.161951  s :     3.161951
      pz      :     1.005835  p :     2.932133
      px      :     0.948127
      py      :     0.978172

  6 C s       :     3.164966  s :     3.164966
      pz      :     1.002942  p :     2.928038
      px      :     0.959446
      py      :     0.965650

  7 C s       :     3.158719  s :     3.158719
      pz      :     1.008493  p :     2.873788
      px      :     0.921930
      py      :     0.943365

  8 C s       :     3.163961  s :     3.163961
      pz      :     1.002744  p :     2.931276
      px      :     0.951481
      py      :     0.977050

  9 C s       :     3.162455  s :     3.162455
      pz      :     1.006143  p :     2.930631
      px      :     0.954943
      py      :     0.969545

 10 C s       :     3.206774  s :     3.206774
      pz      :     0.948142  p :     2.878607
      px      :     0.925824
      py      :     1.004640

 11 C s       :     3.207169  s :     3.207169
      pz      :     0.981030  p :     3.026235
      px      :     1.031499
      py      :     1.013706

 12 C s       :     3.157184  s :     3.157184
      pz      :     0.884534  p :     2.678515
      px      :     0.827935
      py      :     0.966046

 13 O s       :     3.874486  s :     3.874486
      pz      :     1.437035  p :     4.327063
      px      :     1.209251
      py      :     1.680777

 14 O s       :     3.896284  s :     3.896284
      pz      :     1.749419  p :     4.317148
      px      :     1.265106
      py      :     1.302623

 15 H s       :     0.921829  s :     0.921829

 16 H s       :     0.923056  s :     0.923056

 17 H s       :     0.921218  s :     0.921218

 18 H s       :     0.924542  s :     0.924542

 19 H s       :     0.922341  s :     0.922341

 20 H s       :     0.921104  s :     0.921104

 21 H s       :     0.921748  s :     0.921748

 22 H s       :     0.916868  s :     0.916868

 23 H s       :     0.914409  s :     0.914409

 24 H s       :     0.909033  s :     0.909033

 25 H s       :     0.907910  s :     0.907910

 26 H s       :     0.907135  s :     0.907135

 27 H s       :     0.909065  s :     0.909065

 28 H s       :     0.903629  s :     0.903629

 29 H s       :     0.914565  s :     0.914565

 30 H s       :     0.913529  s :     0.913529

 31 H s       :     0.911889  s :     0.911889

 32 H s       :     0.786559  s :     0.786559



                     *******************************
                     * LOEWDIN POPULATION ANALYSIS *
                     *******************************

----------------------
LOEWDIN ATOMIC CHARGES
----------------------
   0 C :   -0.136242
   1 C :   -0.001444
   2 C :   -0.134634
   3 C :   -0.077550
   4 C :    0.005869
   5 C :   -0.058827
   6 C :   -0.057167
   7 C :   -0.023675
   8 C :   -0.058737
   9 C :   -0.058067
  10 C :   -0.047693
  11 C :   -0.128940
  12 C :    0.096080
  13 O :   -0.121751
  14 O :   -0.166746
  15 H :    0.043327
  16 H :    0.042169
  17 H :    0.043828
  18 H :    0.037027
  19 H :    0.042653
  20 H :    0.043899
  21 H :    0.043238
  22 H :    0.045595
  23 H :    0.048177
  24 H :    0.052240
  25 H :    0.053044
  26 H :    0.053878
  27 H :    0.052162
  28 H :    0.056236
  29 H :    0.049019
  30 H :    0.049674
  31 H :    0.051319
  32 H :    0.162039

-------------------------------
LOEWDIN REDUCED ORBITAL CHARGES
-------------------------------
  0 C s       :     3.028756  s :     3.028756
      pz      :     1.030528  p :     3.107486
      px      :     1.051309
      py      :     1.025650

  1 C s       :     3.050731  s :     3.050731
      pz      :     0.964071  p :     2.950713
      px      :     0.981143
      py      :     1.005499

  2 C s       :     3.029463  s :     3.029463
      pz      :     1.052291  p :     3.105171
      px      :     1.001843
      py      :     1.051037

  3 C s       :     3.043823  s :     3.043823
      pz      :     1.006944  p :     3.033727
      px      :     0.977586
      py      :     1.049197

  4 C s       :     3.050678  s :     3.050678
      pz      :     0.974949  p :     2.943454
      px      :     0.976370
      py      :     0.992134

  5 C s       :     3.040661  s :     3.040661
      pz      :     1.006587  p :     3.018166
      px      :     0.999774
      py      :     1.011805

  6 C s       :     3.043454  s :     3.043454
      pz      :     1.003947  p :     3.013713
      px      :     1.006001
      py      :     1.003765

  7 C s       :     3.052344  s :     3.052344
      pz      :     1.009125  p :     2.971332
      px      :     0.967296
      py      :     0.994911

  8 C s       :     3.042139  s :     3.042139
      pz      :     1.003533  p :     3.016598
      px      :     1.002230
      py      :     1.010835

  9 C s       :     3.041202  s :     3.041202
      pz      :     1.007165  p :     3.016865
      px      :     1.002505
      py      :     1.007195

 10 C s       :     3.068738  s :     3.068738
      pz      :     0.986226  p :     2.978955
      px      :     0.965773
      py      :     1.026956

 11 C s       :     3.028702  s :     3.028702
      pz      :     1.010962  p :     3.100237
      px      :     1.051639
      py      :     1.037636

 12 C s       :     3.116462  s :     3.116462
      pz      :     0.920791  p :     2.787458
      px      :     0.891215
      py      :     0.975452

 13 O s       :     3.756970  s :     3.756970
      pz      :     1.455780  p :     4.364781
      px      :     1.226622
      py      :     1.682379

 14 O s       :     3.792786  s :     3.792786
      pz      :     1.755577  p :     4.373960
      px      :     1.308132
      py      :     1.310251

 15 H s       :     0.956673  s :     0.956673

 16 H s       :     0.957831  s :     0.957831

 17 H s       :     0.956172  s :     0.956172

 18 H s       :     0.962973  s :     0.962973

 19 H s       :     0.957347  s :     0.957347

 20 H s       :     0.956101  s :     0.956101

 21 H s       :     0.956762  s :     0.956762

 22 H s       :     0.954405  s :     0.954405

 23 H s       :     0.951823  s :     0.951823

 24 H s       :     0.947760  s :     0.947760

 25 H s       :     0.946956  s :     0.946956

 26 H s       :     0.946122  s :     0.946122

 27 H s       :     0.947838  s :     0.947838

 28 H s       :     0.943764  s :     0.943764

 29 H s       :     0.950981  s :     0.950981

 30 H s       :     0.950326  s :     0.950326

 31 H s       :     0.948681  s :     0.948681

 32 H s       :     0.837961  s :     0.837961



                      *****************************
                      * MAYER POPULATION ANALYSIS *
                      *****************************

  NA   - Mulliken gross atomic population
  ZA   - Total nuclear charge
  QA   - Mulliken gross atomic charge
  VA   - Mayer's total valence
  BVA  - Mayer's bonded valence
  FA   - Mayer's free valence

  ATOM       NA         ZA         QA         VA         BVA        FA
  0 C      6.2368     6.0000    -0.2368     3.9532     3.9532     0.0000
  1 C      6.0480     6.0000    -0.0480     3.9509     3.9509     0.0000
  2 C      6.2358     6.0000    -0.2358     3.9528     3.9528     0.0000
  3 C      6.1488     6.0000    -0.1488     3.9504     3.9504    -0.0000
  4 C      6.0028     6.0000    -0.0028     3.9660     3.9660     0.0000
  5 C      6.0941     6.0000    -0.0941     3.9645     3.9645     0.0000
  6 C      6.0930     6.0000    -0.0930     3.9633     3.9633     0.0000
  7 C      6.0325     6.0000    -0.0325     3.9650     3.9650     0.0000
  8 C      6.0952     6.0000    -0.0952     3.9639     3.9639    -0.0000
  9 C      6.0931     6.0000    -0.0931     3.9641     3.9641     0.0000
 10 C      6.0854     6.0000    -0.0854     3.9468     3.9468    -0.0000
 11 C      6.2334     6.0000    -0.2334     3.9480     3.9480     0.0000
 12 C      5.8357     6.0000     0.1643     3.8968     3.8968    -0.0000
 13 O      8.2015     8.0000    -0.2015     2.3443     2.3443    -0.0000
 14 O      8.2134     8.0000    -0.2134     2.3005     2.3005    -0.0000
 15 H      0.9218     1.0000     0.0782     0.9939     0.9939     0.0000
 16 H      0.9231     1.0000     0.0769     0.9941     0.9941     0.0000
 17 H      0.9212     1.0000     0.0788     0.9938     0.9938     0.0000
 18 H      0.9245     1.0000     0.0755     0.9943     0.9943     0.0000
 19 H      0.9223     1.0000     0.0777     0.9940     0.9940     0.0000
 20 H      0.9211     1.0000     0.0789     0.9938     0.9938     0.0000
 21 H      0.9217     1.0000     0.0783     0.9939     0.9939     0.0000
 22 H      0.9169     1.0000     0.0831     0.9931     0.9931    -0.0000
 23 H      0.9144     1.0000     0.0856     0.9927     0.9927     0.0000
 24 H      0.9090     1.0000     0.0910     0.9917     0.9917     0.0000
 25 H      0.9079     1.0000     0.0921     0.9915     0.9915     0.0000
 26 H      0.9071     1.0000     0.0929     0.9914     0.9914    -0.0000
 27 H      0.9091     1.0000     0.0909     0.9917     0.9917     0.0000
 28 H      0.9036     1.0000     0.0964     0.9907     0.9907    -0.0000
 29 H      0.9146     1.0000     0.0854     0.9927     0.9927    -0.0000
 30 H      0.9135     1.0000     0.0865     0.9925     0.9925     0.0000
 31 H      0.9119     1.0000     0.0881     0.9922     0.9922     0.0000
 32 H      0.7866     1.0000     0.2134     0.9544     0.9544    -0.0000

  Mayer bond orders larger than 0.100000
B(  0-C ,  1-C ) :   0.9931 B(  0-C , 15-H ) :   0.9753 B(  0-C , 16-H ) :   0.9757 
B(  0-C , 17-H ) :   0.9736 B(  1-C ,  2-C ) :   0.9902 B(  1-C ,  3-C ) :   0.9610 
B(  1-C , 18-H ) :   0.9557 B(  2-C , 19-H ) :   0.9758 B(  2-C , 20-H ) :   0.9749 
B(  2-C , 21-H ) :   0.9753 B(  3-C ,  4-C ) :   0.9943 B(  3-C , 22-H ) :   0.9630 
B(  3-C , 23-H ) :   0.9578 B(  4-C ,  5-C ) :   1.3943 B(  4-C ,  7-C ) :   0.1063 
B(  4-C ,  9-C ) :   1.3947 B(  5-C ,  6-C ) :   1.4445 B(  5-C ,  8-C ) :   0.1096 
B(  5-C , 24-H ) :   0.9558 B(  6-C ,  7-C ) :   1.3751 B(  6-C ,  9-C ) :   0.1065 
B(  6-C , 25-H ) :   0.9550 B(  7-C ,  8-C ) :   1.3725 B(  7-C , 10-C ) :   0.9845 
B(  8-C ,  9-C ) :   1.4438 B(  8-C , 26-H ) :   0.9543 B(  9-C , 27-H ) :   0.9557 
B( 10-C , 11-C ) :   0.9824 B( 10-C , 12-C ) :   0.8583 B( 10-C , 28-H ) :   0.9439 
B( 11-C , 29-H ) :   0.9733 B( 11-C , 30-H ) :   0.9736 B( 11-C , 31-H ) :   0.9703 
B( 12-C , 13-O ) :   1.0974 B( 12-C , 14-O ) :   1.8861 B( 13-O , 14-O ) :   0.2633 
B( 13-O , 32-H ) :   0.8764 

-------
TIMINGS
-------

Total SCF time: 0 days 0 hours 0 min 5 sec 

Total time                  ....       5.387 sec
Sum of individual times     ....       5.338 sec  ( 99.1%)

SCF preparation             ....       0.240 sec  (  4.5%)
Fock matrix formation       ....       5.028 sec  ( 93.3%)
  Startup                   ....       0.008 sec  (  0.2% of F)
  Split-RI-J                ....       1.171 sec  ( 23.3% of F)
  XC integration            ....       1.578 sec  ( 31.4% of F)
    Basis function eval.    ....       0.759 sec  ( 48.1% of XC)
    Density eval.           ....       0.272 sec  ( 17.2% of XC)
    XC-Functional eval.     ....       0.151 sec  (  9.6% of XC)
    XC-Potential eval.      ....       0.180 sec  ( 11.4% of XC)
  CPCM terms                ....       2.233 sec  ( 44.4% of F)
Diagonalization             ....       0.000 sec  (  0.0%)
Density matrix formation    ....       0.012 sec  (  0.2%)
Total Energy calculation    ....       0.005 sec  (  0.1%)
Population analysis         ....       0.027 sec  (  0.5%)
Orbital Transformation      ....       0.003 sec  (  0.1%)
Orbital Orthonormalization  ....       0.000 sec  (  0.0%)
DIIS solution               ....       0.003 sec  (  0.1%)
SOSCF solution              ....       0.020 sec  (  0.4%)
Finished LeanSCF after   5.5 sec

Maximum memory used throughout the entire LEANSCF-calculation: 69.0 MB

-------------------------   --------------------
FINAL SINGLE POINT ENERGY      -647.699567501712
-------------------------   --------------------

                                *** OPTIMIZATION RUN DONE ***


------------------------------------------------------------------------------
                              ORCA PROPERTY CALCULATIONS
------------------------------------------------------------------------------

GBWName                                 ... Ibuprofen\Ibuprofen_PBE_STO-3G\Ibuprofen_PBE_STO-3G.orcainp.gbw
Number of atoms                         ...     33
Number of basis functions               ...     93
Max core memory                         ...   1024 MB

Electric properties:
Dipole moment                           ... YES
Quadrupole moment                       ...  NO
Static polarizability (Dipole/Dipole)   ...  NO
Static polarizability (Dipole/Quad.)    ...  NO
Static polarizability (Quad./Quad.)     ...  NO
Static polarizability (Velocity)        ...  NO

Atomic electric properties:
Dipole moment                           ...  NO
Quadrupole moment                       ...  NO
Static polarizability                   ...  NO

Choice of electric origin               ... Center of mass
Position of electric origin             ...    11.708685    -0.696005    -1.451214

General magnetic properties:
Magnetizability                         ...  NO

EPR properties:
g-Tensor (aka g-matrix)                 ...  NO
Zero-Field splitting spin-orbit         ...  NO
Zero-field splitting spin-spin          ...  NO
Hyperfine couplings                     ...  NO (   0 nuclei)
Quadrupole couplings                    ...  NO (   0 nuclei)
Contact density                         ...  NO (   0 nuclei)

NMR properties:
Chemical shifts                         ...  NO (   0 nuclei)
Spin-rotation constants                 ...  NO (   0 nuclei)
Spin-spin couplings                     ...  NO (   0 nuclei,    0 pairs)

Choice of magnetic origin               ... GIAO
Position of magnetic origin             ...     0.000000     0.000000     0.000000

Properties with geometric perturbations:
SCF Hessian                             ...  NO
IR spectrum                             ...  NO
VCD spectrum                            ...  NO
X-ray spectroscopy properties:
SCF XES/XAS/RIXS spectra                ...  NO


-------------
DIPOLE MOMENT
-------------

Method             : SCF
Type of density    : Electron Density
Multiplicity       :   1
Irrep              :   0
Energy             :  -647.6995675017116127 Eh
Relativity type    : 
Basis              : AO
                                X                 Y                 Z
Electronic contribution:     20.094240823       2.047773578      -0.091829766
Nuclear contribution   :    -21.489460358      -2.609939284      -0.389471995
                        -----------------------------------------
Total Dipole Moment    :     -1.395219535      -0.562165706      -0.481301760
                        -----------------------------------------
Magnitude (a.u.)       :      1.579341386
Magnitude (Debye)      :      4.014366777



--------------------
Rotational spectrum 
--------------------
 
Rotational constants in cm-1:             0.046436             0.008332             0.007827 
Rotational constants in MHz :          1392.107555           249.788132           234.640349 

Dipole components along the rotational axes: 
x,y,z [a.u.] :     1.403198    -0.704790     0.169194 
x,y,z [Debye]:     3.566645    -1.791434     0.430057 

 

Dipole moment calculation done in   0.0 sec 

Maximum memory used throughout the entire PROP-calculation: 8.6 MB

--------------------------------
SUGGESTED CITATIONS FOR THIS RUN
--------------------------------

Below you find a list of papers that are relevant to this ORCA run
We neither can nor want to force you to cite these papers, but we appreciate if you do
You receive ORCA, which is the product of decades of hard work by many enthusiastic individuals, for free
The only thing we kindly ask in return is that you cite our papers,
We deeply appreciate it, if you show your appreciation for ORCA by not just citing the generic ORCA reference.

Please note that relegating all ORCA citations to the supporting information does *not* help us.
SI sections are not indexed - citations you put there will not count into any citation statistics
But we need these citations in order to attract the funding resources that allow us to do what we are doing

Therefore, if you are a happy ORCA user, please consider citing a few of the papers listed below in the main body of your paper

In addition to the list printed below, the program has created the file Ibuprofen\Ibuprofen_PBE_STO-3G\Ibuprofen_PBE_STO-3G.orcainp.bibtex that contains the list in bibtex format
You can import this file easily into all common literature databanks and citation aid programs


List of essential papers. We consider these as the minimum necessary citations

  1. Neese,F.
     Software update: the ORCA program system, version 5.0
     WIRES Comput. Molec. Sci., 2022 12(1)e1606
     doi.org/10.1002/wcms.1606

List of papers to cite with high priority. The work reported in these papers was absolutely
necessary for this run to complete.
Our perspective: the developers of density functionals and basis sets usually get cited in chemistry papers
Good! But without the algorithms to do something with them, the functionals or basis sets would not do anything.
Hence, in our opinion, the algorithm design and method developments papers are equally worthy of getting cited

  1. Neese,F.
     An improvement of the resolution of the identity approximation for the formation of the Coulomb matrix
     J. Comp. Chem., 2003 24(14)1740-1747
     doi.org/10.1002/jcc.10318
  2. Garcia-Rates,M.; Neese,F.
     Effect of the Solute Cavity on the Solvation Energy and its Derivatives within the Framework of the Gaussian Charge Scheme
     J. Comput. Chem., 2020 41 922-939
     doi.org/10.1002/jcc.26139
  3. Neese,F.
     The SHARK Integral Generation and Digestion System
     J. Comp. Chem., 2022  1-16
     doi.org/10.1002/jcc.26942

List of suggested additional citations. These are papers that are important in the 'surrounding' of 
of this run, or papers that preceded the highly important papers. If you like your results we are grateful for a citation.

  1. Neese,F.
     The ORCA program system
     WIRES Comput. Molec. Sci., 2012 2(1)73-78
     doi.org/10.1002/wcms.81
  2. Neese,F.
     Software update: the ORCA program system, version 4.0
     WIRES Comput. Molec. Sci., 2018 8(1)1-6
     doi.org/10.1002/wcms.1327
  3. Neese,F.; Wennmohs,F.; Becker,U.; Riplinger,C.
     The ORCA quantum chemistry program package
     J. Chem. Phys., 2020 152 Art. No. L224108
     doi.org/10.1063/5.0004608

List of optional additional citations

  1. Neese,F.
     Approximate second-order SCF convergence for spin unrestricted wavefunctions
     Chem. Phys. Lett., 2000 325(1-3)93-98
     doi.org/10.1016/s0009-2614(00)00662-x

Timings for individual modules:

Sum of individual times          ...      183.810 sec (=   3.064 min)
Startup calculation              ...       11.309 sec (=   0.188 min)   6.2 %
SCF iterations                   ...      108.860 sec (=   1.814 min)  59.2 %
Property calculations            ...        0.067 sec (=   0.001 min)   0.0 %
SCF Gradient evaluation          ...       63.428 sec (=   1.057 min)  34.5 %
Geometry relaxation              ...        0.146 sec (=   0.002 min)   0.1 %
                             ****ORCA TERMINATED NORMALLY****
TOTAL RUN TIME: 0 days 0 hours 3 minutes 5 seconds 25 msec
