
                                 *****************
                                 * O   R   C   A *
                                 *****************

                                            #,                                       
                                            ###                                      
                                            ####                                     
                                            #####                                    
                                            ######                                   
                                           ########,                                 
                                     ,,################,,,,,                         
                               ,,#################################,,                 
                          ,,##########################################,,             
                       ,#########################################, ''#####,          
                    ,#############################################,,   '####,        
                  ,##################################################,,,,####,       
                ,###########''''           ''''###############################       
              ,#####''   ,,,,##########,,,,          '''####'''          '####       
            ,##' ,,,,###########################,,,                        '##       
           ' ,,###''''                  '''############,,,                           
         ,,##''                                '''############,,,,        ,,,,,,###''
      ,#''                                            '''#######################'''  
     '                                                          ''''####''''         
             ,#######,   #######,   ,#######,      ##                                
            ,#'     '#,  ##    ##  ,#'     '#,    #''#        ,####,   ,####,        
            ##       ##  ##   ,#'  ##            #'  '#       #'       #'  '#        
            ##       ##  #######   ##           ,######,      #####,   #    #        
            '#,     ,#'  ##    ##  '#,     ,#' ,#      #,     #,   #   #,  ,#        
             '#######'   ##     ##  '#######'  #'      '#     '####' # '####'        



                #########################################################
                #                        -***-                          #
                #          Department of theory and spectroscopy        #
                #                                                       #
                #                      Frank Neese                      #
                #                                                       #
                #     Directorship, Architecture, Infrastructure        #
                #                    SHARK, DRIVERS                     #
                #        Core code/Algorithms in most modules           #
                #                                                       #
                #        Max Planck Institute fuer Kohlenforschung      #
                #                Kaiser Wilhelm Platz 1                 #
                #                 D-45470 Muelheim/Ruhr                 #
                #                      Germany                          #
                #                                                       #
                #                  All rights reserved                  #
                #                        -***-                          #
                #########################################################


                         Program Version 6.0.0  -   RELEASE   -


 With contributions from (in alphabetic order):
   Daniel Aravena         : Magnetic Suceptibility
   Michael Atanasov       : Ab Initio Ligand Field Theory (pilot matlab implementation)
   Alexander A. Auer      : GIAO ZORA, VPT2 properties, NMR spectrum
   Ute Becker             : All parallelization in ORCA, NUMFREQ, NUMCALC
   Giovanni Bistoni       : ED, misc. LED, open-shell LED, HFLD
   Martin Brehm           : Molecular dynamics
   Dmytro Bykov           : pre 5.0 version of the SCF Hessian
   Marcos Casanova-Páez   : Triplet and SCS-CIS(D). UHF-(DLPNO)-IP/EA/STEOM-CCSD. UHF-CVS-IP/STEOM-CCSD
   Vijay G. Chilkuri      : MRCI spin determinant printing, contributions to CSF-ICE
   Pauline Colinet        : FMM embedding
   Dipayan Datta          : RHF DLPNO-CCSD density
   Achintya Kumar Dutta   : EOM-CC, STEOM-CC
   Nicolas Foglia         : Exact transition moments, OPA infrastructure, MCD improvements
   Dmitry Ganyushin       : Spin-Orbit,Spin-Spin,Magnetic field MRCI
   Miquel Garcia          : C-PCM and meta-GGA Hessian, CCSD/C-PCM, Gaussian charge scheme
   Tiago L. C. Gouveia    : GS-ROHF, GS-ROCIS
   Yang Guo               : DLPNO-NEVPT2, F12-NEVPT2, CIM, IAO-localization
   Andreas Hansen         : Spin unrestricted coupled pair/coupled cluster methods
   Ingolf Harden          : AUTO-CI MPn and infrastructure 
   Benjamin Helmich-Paris : MC-RPA, TRAH-(SCF,CASSCF), AVAS, COSX integrals, SCF dyn. polar.
   Lee Huntington         : MR-EOM, pCC
   Robert Izsak           : Overlap fitted RIJCOSX, COSX-SCS-MP3, EOM
   Riya Kayal             : Wick's Theorem for AUTO-CI, AUTO-CI UHF-CCSDT
   Emily Kempfer          : AUTO-CI, RHF CISDT and CCSDT
   Christian Kollmar      : KDIIS, OOCD, Brueckner-CCSD(T), CCSD density, CASPT2, CASPT2-K, improved NEVPT2
   Axel Koslowski         : Symmetry handling
   Simone Kossmann        : Meta GGA functionals, TD-DFT gradient, OOMP2, (MP2 Hessian; deprecated post 5.0)
   Lucas Lang             : DCDCAS
   Marvin Lechner         : AUTO-CI (C++ implementation), FIC-MRCC
   Spencer Leger          : CASSCF response
   Dagmar Lenk            : GEPOL surface, SMD, ORCA-2-JSON
   Dimitrios Liakos       : Extrapolation schemes; Compound Job, initial MDCI parallelization
   Dimitrios Manganas     : Further ROCIS development; embedding schemes. LFT, Crystal Embedding
   Dimitrios Pantazis     : SARC Basis sets
   Anastasios Papadopoulos: AUTO-CI, single reference methods and gradients
   Taras Petrenko         : pre 6.0 DFT Hessian and TD-DFT gradient, (ASA, deprecated), ECA, 1-Electron XAS/XES, NRVS
   Peter Pinski           : DLPNO-MP2, DLPNO-MP2 Gradient
   Christoph Reimann      : Effective Core Potentials
   Marius Retegan         : Local ZFS, SOC
   Christoph Riplinger    : Optimizer, TS searches, QM/MM, DLPNO-CCSD(T), (RO)-DLPNO pert. Triples
   Michael Roemelt        : Original ROCIS implementation
   Masaaki Saitow         : Open-shell DLPNO-CCSD energy and density
   Barbara Sandhoefer     : DKH picture change effects
   Kantharuban Sivalingam : CASSCF convergence/infrastructure, NEVPT2 and variants, FIC-MRCI
   Bernardo de Souza      : ESD, SOC TD-DFT
   Georgi Stoychev        : AutoAux, RI-MP2 NMR, DLPNO-MP2 response, X2C
   Van Anh Tran           : RI-MP2 g-tensors
   Willem Van den Heuvel  : Paramagnetic NMR
   Zikuan Wang            : NOTCH, Electric field optimization 
   Frank Wennmohs         : Technical directorship and infrastructure
   Hang Xu                : AUTO-CI-Response properties 


 We gratefully acknowledge several colleagues who have allowed us to
 interface, adapt or use parts of their codes:
   Stefan Grimme, W. Hujo, H. Kruse, P. Pracht,  : VdW corrections, initial TS optimization,
                  C. Bannwarth, S. Ehlert,         DFT functionals, gCP, sTDA/sTD-DF
                  L. Wittmann, M. Mueller
   Ed Valeev, F. Pavosevic, A. Kumar             : LibInt (2-el integral package), F12 methods
   Garnet Chan, S. Sharma, J. Yang, R. Olivares  : DMRG
   Ulf Ekstrom                                   : XCFun DFT Library
   Mihaly Kallay                                 : mrcc  (arbitrary order and MRCC methods)
   Frank Weinhold                                : gennbo (NPA and NBO analysis)
   Simon Mueller                                 : openCOSMO-RS
   Christopher J. Cramer and Donald G. Truhlar   : smd solvation model
   Lars Goerigk                                  : TD-DFT with DH, B97 family of functionals
   V. Asgeirsson, H. Jonsson                     : NEB implementation
   FAccTs GmbH                                   : IRC, NEB, NEB-TS, DLPNO-Multilevel, CI-OPT
                                                   MM, QMMM, 2- and 3-layer-ONIOM, Crystal-QMMM,
                                                   LR-CPCM, SF, NACMEs, symmetry and pop. for TD-DFT,
                                                   nearIR, NL-DFT gradient (VV10), updates on ESD,
                                                   ML-optimized integration grids, MBIS, APM,
                                                   GOAT, DOCKER, SOLVATOR, interface openCOSMO-RS
   S Lehtola, MJT Oliveira, MAL Marques          : LibXC Library
   Liviu Ungur et al                             : ANISO software


 Your calculation uses the libint2 library for the computation of 2-el integrals
 For citations please refer to: http://libint.valeyev.net

 Your ORCA version has been built with support for libXC version: 6.2.2
 For citations please refer to: https://libxc.gitlab.io

 This ORCA versions uses:
   CBLAS   interface :  Fast vector & matrix operations
   LAPACKE interface :  Fast linear algebra routines
   Shared memory     :  Shared parallel matrices


Warning: RI is on but no J-basis has been assigned. Assigning Def2/J (nothing to worry about!)
================================================================================

----- Orbital basis set information -----
Your calculation utilizes the basis: STO-3G
   H-Ne       : W. J. Hehre, R. F. Stewart and J. A. Pople, J. Chem. Phys. 2657 (1969).
   Na-Ar      : W. J. Hehre, R. Ditchfield, R. F. Stewart and J. A. Pople, J. Chem. Phys. 2769 (1970).
   K,Ca,Ga-Kr : W. J. Pietro, B. A. Levy, W. J. Hehre and R. F. Stewart, J. Am. Chem. Soc. 19, 2225 (1980).
   Sc-Zn,Y-Cd : W. J. Pietro and W. J. Hehre, J. Comp. Chem. 4, 241 (1983).

----- AuxJ basis set information -----
Your calculation utilizes the auxiliary basis: def2/J
   F. Weigend, Phys. Chem. Chem. Phys. 8, 1057 (2006).

================================================================================
                                        WARNINGS
                       Please study these warnings very carefully!
================================================================================

WARNING: Old DensityContainer found on disk!
         Will remove this file - 
         If you want to keep old densities, please start your calculation with a different basename. 

INFO   : Checking CIS options ...

WARNING: CIS/ROCIS methods need fully converged wavefunctions
  ===> : Setting SCFConvForced true
         You can overwrite this default with %scf ConvForced false 


================================================================================
                                       INPUT FILE
================================================================================
NAME = Ibuprofen\Ibuprofen_PBE_STO-3G\Ibuprofen_PBE_STO-3G.orcainp.xyz
|  1> # ORCA xyz input file 
|  2> # 
|  3> !PBE STO-3G CPCM(WATER) LARGEPRINT 
|  4> %tddft
|  5>     NRoots 30
|  6>     MaxDim 5
|  7> end
|  8> * xyz 0 1
|  9>   C           2.85515368202405     -0.04333526929808      1.22428712210975
| 10>   C           2.51222489085751     -1.18691578724313      0.22073713109497
| 11>   C           0.97901914879214     -1.47878775131981      0.21465578346646
| 12>   C           2.99932190768488     -0.84112034983109     -1.23773738355491
| 13>   C           4.53074389603915     -0.70566329294562     -1.34676027742580
| 14>   C           5.36322662638200     -1.85787573480722     -1.31900237924103
| 15>   C           6.76654591208090     -1.74149941635969     -1.40670265529811
| 16>   C           7.39007994512164     -0.46637401861835     -1.52398228887113
| 17>   C           6.55495941487774      0.68781404981224     -1.55225374360127
| 18>   C           5.15177398252431      0.56742796661121     -1.46361876320446
| 19>   C           8.92806167339356     -0.35636184168356     -1.61992046775607
| 20>   C           9.42405392466020      0.48521643117833     -2.83760005822717
| 21>   C           9.57752238526280      0.23667692409437     -0.27059000800166
| 22>   O           8.73535185347606      0.18242151379177      0.87781371323100
| 23>   O          10.74847457366654      0.69381594441910     -0.18182577094916
| 24>   H           2.53354042604287     -0.31909040187700      2.24616593103412
| 25>   H           2.33878844570192      0.89195806397198      0.93667252631681
| 26>   H           3.94402708103618      0.14976597557989      1.23910987367432
| 27>   H           3.04332115593712     -2.10964163279812      0.54475758418031
| 28>   H           0.41585223133359     -0.58506762156160     -0.11433996965096
| 29>   H           0.63483197299146     -1.75326769198695      1.22965929256884
| 30>   H           0.74359419025824     -2.31277486240804     -0.47304241635170
| 31>   H           2.52096779949612      0.10509510898231     -1.56366426445223
| 32>   H           2.65660300235757     -1.64975872139454     -1.91786043398450
| 33>   H           4.90285608456656     -2.85865673080872     -1.23437071715338
| 34>   H           7.39572646172304     -2.64986841477453     -1.38933740815147
| 35>   H           7.01126096718682      1.68975675752493     -1.64266201192062
| 36>   H           4.52360223275197      1.47584829450121     -1.49101839050612
| 37>   H           9.33571905321421     -1.38871065571794     -1.71876075526953
| 38>   H           8.98354041449126      1.49918723482310     -2.82440638090815
| 39>   H           9.14873374516803     -0.00932508162711     -3.78793888372692
| 40>   H          10.52562701991555      0.58109861227963     -2.78804883491526
| 41>   H           7.85149389898387     -0.19347760050897      0.47567530544504
| 42> *
| 43> 
| 44>                          ****END OF INPUT****
================================================================================

                       ****************************
                       * Single Point Calculation *
                       ****************************

---------------------------------
CARTESIAN COORDINATES (ANGSTROEM)
---------------------------------
  C      2.855154   -0.043335    1.224287
  C      2.512225   -1.186916    0.220737
  C      0.979019   -1.478788    0.214656
  C      2.999322   -0.841120   -1.237737
  C      4.530744   -0.705663   -1.346760
  C      5.363227   -1.857876   -1.319002
  C      6.766546   -1.741499   -1.406703
  C      7.390080   -0.466374   -1.523982
  C      6.554959    0.687814   -1.552254
  C      5.151774    0.567428   -1.463619
  C      8.928062   -0.356362   -1.619920
  C      9.424054    0.485216   -2.837600
  C      9.577522    0.236677   -0.270590
  O      8.735352    0.182422    0.877814
  O     10.748475    0.693816   -0.181826
  H      2.533540   -0.319090    2.246166
  H      2.338788    0.891958    0.936673
  H      3.944027    0.149766    1.239110
  H      3.043321   -2.109642    0.544758
  H      0.415852   -0.585068   -0.114340
  H      0.634832   -1.753268    1.229659
  H      0.743594   -2.312775   -0.473042
  H      2.520968    0.105095   -1.563664
  H      2.656603   -1.649759   -1.917860
  H      4.902856   -2.858657   -1.234371
  H      7.395726   -2.649868   -1.389337
  H      7.011261    1.689757   -1.642662
  H      4.523602    1.475848   -1.491018
  H      9.335719   -1.388711   -1.718761
  H      8.983540    1.499187   -2.824406
  H      9.148734   -0.009325   -3.787939
  H     10.525627    0.581099   -2.788049
  H      7.851494   -0.193478    0.475675

----------------------------
CARTESIAN COORDINATES (A.U.)
----------------------------
  NO LB      ZA    FRAG     MASS         X           Y           Z
   0 C     6.0000    0    12.011    5.395459   -0.081892    2.313567
   1 C     6.0000    0    12.011    4.747417   -2.242946    0.417133
   2 C     6.0000    0    12.011    1.850078   -2.794504    0.405641
   3 C     6.0000    0    12.011    5.667897   -1.589487   -2.338985
   4 C     6.0000    0    12.011    8.561865   -1.333510   -2.545008
   5 C     6.0000    0    12.011   10.135030   -3.510876   -2.492553
   6 C     6.0000    0    12.011   12.786919   -3.290957   -2.658283
   7 C     6.0000    0    12.011   13.965227   -0.881319   -2.879909
   8 C     6.0000    0    12.011   12.387078    1.299780   -2.933334
   9 C     6.0000    0    12.011    9.735442    1.072283   -2.765839
  10 C     6.0000    0    12.011   16.871591   -0.673426   -3.061206
  11 C     6.0000    0    12.011   17.808881    0.916926   -5.362287
  12 C     6.0000    0    12.011   18.098894    0.447255   -0.511341
  13 O     8.0000    0    15.999   16.507423    0.344727    1.658828
  14 O     8.0000    0    15.999   20.311673    1.311122   -0.343601
  15 H     1.0000    0     1.008    4.787698   -0.602993    4.244638
  16 H     1.0000    0     1.008    4.419670    1.685556    1.770055
  17 H     1.0000    0     1.008    7.453131    0.283017    2.341578
  18 H     1.0000    0     1.008    5.751044   -3.986645    1.029443
  19 H     1.0000    0     1.008    0.785847   -1.105618   -0.216071
  20 H     1.0000    0     1.008    1.199659   -3.313196    2.323719
  21 H     1.0000    0     1.008    1.405189   -4.370511   -0.893921
  22 H     1.0000    0     1.008    4.763939    0.198601   -2.954897
  23 H     1.0000    0     1.008    5.020252   -3.117592   -3.624231
  24 H     1.0000    0     1.008    9.265055   -5.402078   -2.332623
  25 H     1.0000    0     1.008   13.975898   -5.007526   -2.625467
  26 H     1.0000    0     1.008   13.249363    3.193178   -3.104181
  27 H     1.0000    0     1.008    8.548369    2.788949   -2.817616
  28 H     1.0000    0     1.008   17.641952   -2.624283   -3.247987
  29 H     1.0000    0     1.008   16.976431    2.833053   -5.337355
  30 H     1.0000    0     1.008   17.288601   -0.017622   -7.158167
  31 H     1.0000    0     1.008   19.890552    1.098117   -5.268649
  32 H     1.0000    0     1.008   14.837173   -0.365620    0.898896

--------------------------------
INTERNAL COORDINATES (ANGSTROEM)
--------------------------------
 C      0   0   0     0.000000000000     0.00000000     0.00000000
 C      1   0   0     1.559643914905     0.00000000     0.00000000
 C      2   1   0     1.560751765562   110.83160298     0.00000000
 C      2   1   3     1.576066590668   111.50676239   122.82809146
 C      4   2   1     1.541261792189   113.06821389    63.56650950
 C      5   4   2     1.421756487030   120.60968732    74.28846781
 C      6   5   4     1.410864913282   120.95323612   180.54927991
 C      7   6   5     1.424252078382   120.95894774     0.07540445
 C      8   7   6     1.424912513979   118.04996560   359.90246979
 C      9   8   7     1.411126615987   120.82634301     0.12952954
 C      8   7   6     1.544893073886   120.31188580   180.04042316
 C     11   8   7     1.561091249005   113.77390636   127.64398104
 C     11   8   7     1.610647970103   112.06265193   251.97140943
 O     13  11   8     1.425140681160   115.01007929    17.75909080
 O     13  11   8     1.260152451575   124.55988578   196.06096703
 H      1   2   3     1.106215295363   110.34600479    58.92919782
 H      1   2   3     1.106403557593   110.48421904   299.10329521
 H      1   2   3     1.105962514651   110.67858069   179.04681880
 H      2   1   3     1.112868133632   108.40164499   241.20651537
 H      3   2   1     1.106404470718   110.49481318    61.81203574
 H      3   2   1     1.106361682862   110.39119618   301.97453534
 H      3   2   1     1.106294819022   110.63710434   181.87858200
 H      4   2   1     1.109222556122   109.01341932   301.60934637
 H      4   2   1     1.110819349741   108.15069771   184.49099445
 H      6   5   4     1.104837615198   119.44583144     0.96610810
 H      7   6   5     1.105126215931   119.83523353   180.36121341
 H      9   8   7     1.104660106621   119.61813960   180.00755495
 H     10   9   8     1.104797709498   119.58274273   180.20636726
 H     11   8   7     1.114315043242   107.68214967     7.60528189
 H     12  11   8     1.105605271517   111.00901149    56.08964315
 H     12  11   8     1.106126752400   110.49044804   295.37698844
 H     12  11   8     1.106847776605   109.14667462   175.58107018
 H     14  13  11     1.041259010462   101.77934987   356.05692853

---------------------------
INTERNAL COORDINATES (A.U.)
---------------------------
 C      0   0   0     0.000000000000     0.00000000     0.00000000
 C      1   0   0     2.947299865607     0.00000000     0.00000000
 C      2   1   0     2.949393399946   110.83160298     0.00000000
 C      2   1   3     2.978334225186   111.50676239   122.82809146
 C      4   2   1     2.912562687915   113.06821389    63.56650950
 C      5   4   2     2.686730389612   120.60968732    74.28846781
 C      6   5   4     2.666148298062   120.95323612   180.54927991
 C      7   6   5     2.691446373811   120.95894774     0.07540445
 C      8   7   6     2.692694416218   118.04996560   359.90246979
 C      9   8   7     2.666642844503   120.82634301     0.12952954
 C      8   7   6     2.919424815836   120.31188580   180.04042316
 C     11   8   7     2.950034930680   113.77390636   127.64398104
 C     11   8   7     3.043683561652   112.06265193   251.97140943
 O     13  11   8     2.693125589703   115.01007929    17.75909080
 O     13  11   8     2.381343020466   124.55988578   196.06096703
 H      1   2   3     2.090443953391   110.34600479    58.92919782
 H      1   2   3     2.090799717447   110.48421904   299.10329521
 H      1   2   3     2.089966267074   110.67858069   179.04681880
 H      2   1   3     2.103015995733   108.40164499   241.20651537
 H      3   2   1     2.090801443003   110.49481318    61.81203574
 H      3   2   1     2.090720585673   110.39119618   301.97453534
 H      3   2   1     2.090594231328   110.63710434   181.87858200
 H      4   2   1     2.096126852639   109.01341932   301.60934637
 H      4   2   1     2.099144355271   108.15069771   184.49099445
 H      6   5   4     2.087840515179   119.44583144     0.96610810
 H      7   6   5     2.088385891526   119.83523353   180.36121341
 H      9   8   7     2.087505072581   119.61813960   180.00755495
 H     10   9   8     2.087765104335   119.58274273   180.20636726
 H     11   8   7     2.105750258637   107.68214967     7.60528189
 H     12  11   8     2.089291175387   111.00901149    56.08964315
 H     12  11   8     2.090276631440   110.49044804   295.37698844
 H     12  11   8     2.091639169723   109.14667462   175.58107018
 H     14  13  11     1.967694364251   101.77934987   356.05692853

---------------------
BASIS SET INFORMATION
---------------------
There are 3 groups of distinct atoms

 Group   1 Type C   : 6s3p contracted to 2s1p pattern {33/3}
 Group   2 Type O   : 6s3p contracted to 2s1p pattern {33/3}
 Group   3 Type H   : 3s contracted to 1s pattern {3}

Atom   0C    basis set group =>   1
Atom   1C    basis set group =>   1
Atom   2C    basis set group =>   1
Atom   3C    basis set group =>   1
Atom   4C    basis set group =>   1
Atom   5C    basis set group =>   1
Atom   6C    basis set group =>   1
Atom   7C    basis set group =>   1
Atom   8C    basis set group =>   1
Atom   9C    basis set group =>   1
Atom  10C    basis set group =>   1
Atom  11C    basis set group =>   1
Atom  12C    basis set group =>   1
Atom  13O    basis set group =>   2
Atom  14O    basis set group =>   2
Atom  15H    basis set group =>   3
Atom  16H    basis set group =>   3
Atom  17H    basis set group =>   3
Atom  18H    basis set group =>   3
Atom  19H    basis set group =>   3
Atom  20H    basis set group =>   3
Atom  21H    basis set group =>   3
Atom  22H    basis set group =>   3
Atom  23H    basis set group =>   3
Atom  24H    basis set group =>   3
Atom  25H    basis set group =>   3
Atom  26H    basis set group =>   3
Atom  27H    basis set group =>   3
Atom  28H    basis set group =>   3
Atom  29H    basis set group =>   3
Atom  30H    basis set group =>   3
Atom  31H    basis set group =>   3
Atom  32H    basis set group =>   3

-------------------------
BASIS SET IN INPUT FORMAT
-------------------------

 # Basis set for element : H 
 NewGTO H 
 S 3 
   1       3.4252509100      0.1543289707
   2       0.6239137300      0.5353281424
   3       0.1688554000      0.4446345420
  end;

 # Basis set for element : C 
 NewGTO C 
 S 3 
   1      71.6168370000      0.1543289700
   2      13.0450960000      0.5353281400
   3       3.5305122000      0.4446345400
 S 3 
   1       2.9412494000     -0.0999672301
   2       0.6834831000      0.3995128303
   3       0.2222899000      0.7001154705
 P 3 
   1       2.9412494000      0.1559162721
   2       0.6834831000      0.6076837282
   3       0.2222899000      0.3919573953
  end;

 # Basis set for element : O 
 NewGTO O 
 S 3 
   1     130.7093200000      0.1543289687
   2      23.8088610000      0.5353281356
   3       6.4436083000      0.4446345363
 S 3 
   1       5.0331513000     -0.0999672287
   2       1.1695961000      0.3995128246
   3       0.3803890000      0.7001154606
 P 3 
   1       5.0331513000      0.1559162685
   2       1.1695961000      0.6076837141
   3       0.3803890000      0.3919573862
  end;

---------------------------------
AUXILIARY/J BASIS SET INFORMATION
---------------------------------
There are 3 groups of distinct atoms

 Group   1 Type C   : 12s5p4d2f1g contracted to 6s4p3d1f1g pattern {711111/2111/211/2/1}
 Group   2 Type O   : 12s5p4d2f1g contracted to 6s4p3d1f1g pattern {711111/2111/211/2/1}
 Group   3 Type H   : 5s2p1d contracted to 3s1p1d pattern {311/2/1}

Atom   0C    basis set group =>   1
Atom   1C    basis set group =>   1
Atom   2C    basis set group =>   1
Atom   3C    basis set group =>   1
Atom   4C    basis set group =>   1
Atom   5C    basis set group =>   1
Atom   6C    basis set group =>   1
Atom   7C    basis set group =>   1
Atom   8C    basis set group =>   1
Atom   9C    basis set group =>   1
Atom  10C    basis set group =>   1
Atom  11C    basis set group =>   1
Atom  12C    basis set group =>   1
Atom  13O    basis set group =>   2
Atom  14O    basis set group =>   2
Atom  15H    basis set group =>   3
Atom  16H    basis set group =>   3
Atom  17H    basis set group =>   3
Atom  18H    basis set group =>   3
Atom  19H    basis set group =>   3
Atom  20H    basis set group =>   3
Atom  21H    basis set group =>   3
Atom  22H    basis set group =>   3
Atom  23H    basis set group =>   3
Atom  24H    basis set group =>   3
Atom  25H    basis set group =>   3
Atom  26H    basis set group =>   3
Atom  27H    basis set group =>   3
Atom  28H    basis set group =>   3
Atom  29H    basis set group =>   3
Atom  30H    basis set group =>   3
Atom  31H    basis set group =>   3
Atom  32H    basis set group =>   3

-------------------------------------
AUXILIARY/J BASIS SET IN INPUT FORMAT
-------------------------------------

 # Auxiliary/J basis set for element : H 
 NewAuxJGTO H 
 S 3 
   1      15.6752927000      0.1007184237
   2       3.6063578000      0.3404257499
   3       1.2080016000      0.6491996172
 S 1 
   1       0.4726794000      1.0000000000
 S 1 
   1       0.2018100000      1.0000000000
 P 2 
   1       2.0281365000      0.5596620919
   2       0.5358730000      0.5596620919
 D 1 
   1       2.2165124000      1.0000000000
  end;

 # Auxiliary/J basis set for element : C 
 NewAuxJGTO C 
 S 7 
   1    1861.0916331000      0.0134602335
   2     642.9939764000      0.0299160374
   3     235.1105725000      0.1008649584
   4      90.7028894000      0.2370970548
   5      36.7794552000      0.3924037254
   6      15.6046273000      0.3195862154
   7       6.8907294000      0.0530104441
 S 1 
   1       3.1478850000     -1.0000000000
 S 1 
   1       1.4777287000      1.0000000000
 S 1 
   1       0.7076466000      1.0000000000
 S 1 
   1       0.3430122000      1.0000000000
 S 1 
   1       0.1669453000      1.0000000000
 P 2 
   1      13.5472892000     -0.6769313712
   2       5.4669419000     -0.3779500978
 P 1 
   1       2.1751721000      1.0000000000
 P 1 
   1       0.8582194000      1.0000000000
 P 1 
   1       0.3376720000      1.0000000000
 D 2 
   1       5.9287253000     -0.3533329857
   2       1.9809209000     -0.7456525731
 D 1 
   1       0.8055417000     -1.0000000000
 D 1 
   1       0.3531244000     -1.0000000000
 F 2 
   1       1.6755626000      0.6311076882
   2       0.5997536000      0.4968166032
 G 1 
   1       1.0024600000     -1.0000000000
  end;

 # Auxiliary/J basis set for element : O 
 NewAuxJGTO O 
 S 7 
   1    2876.8216605000      0.0168151159
   2    1004.7443032000      0.0340137548
   3     369.7579954000      0.1194951309
   4     142.9442404000      0.2664627624
   5      57.8366425000      0.4202764046
   6      24.3864983000      0.2765077335
   7      10.6622662000      0.0057008815
 S 1 
   1       4.8070437000     -1.0000000000
 S 1 
   1       2.2210770000      1.0000000000
 S 1 
   1       1.0447795000      1.0000000000
 S 1 
   1       0.4968425000      1.0000000000
 S 1 
   1       0.2371384000      1.0000000000
 P 2 
   1      64.2613382000     -0.2731534179
   2      16.3006076000     -0.8168011598
 P 1 
   1       4.3550542000      1.0000000000
 P 1 
   1       1.2019554000      1.0000000000
 P 1 
   1       0.3354196000      1.0000000000
 D 2 
   1       9.2146611000     -0.4661230638
   2       2.8435251000     -0.6600908911
 D 1 
   1       0.9955759000     -1.0000000000
 D 1 
   1       0.3649441000     -1.0000000000
 F 2 
   1       2.6420115000      0.5931563945
   2       0.7345613000      0.5931563945
 G 1 
   1       1.3931000000     -1.0000000000
  end;


Checking for AutoStart:
The File: Ibuprofen\Ibuprofen_PBE_STO-3G\Ibuprofen_PBE_STO-3G.orcainp.gbw exists
Trying to determine its content:
     ... Fine, the file contains calculation information
     ... Fine, the calculation information was read
     ... Fine, the file contains a basis set
     ... Fine, the basis set was read
     ... Fine, the file contains a geometry
     ... Fine, the geometry was read
     ... Fine, the file contains a set of orbitals
     ... Fine, the orbitals can be read
     => possible old guess file was deleted
     => GBW file was renamed to GES file
     => GES file is set as startup file
     => Guess is set to MORead
     ... now leaving AutoStart

------------------------------------------------------------------------------
                             ORCA STARTUP CALCULATIONS
                           -- RI-GTO INTEGRALS CHOSEN --
------------------------------------------------------------------------------
------------------------------------------------------------------------------
                   ___                                                        
                  /   \      - P O W E R E D   B Y -                         
                 /     \                                                     
                 |  |  |   _    _      __       _____    __    __             
                 |  |  |  | |  | |    /  \     |  _  \  |  |  /  |          
                  \  \/   | |  | |   /    \    | | | |  |  | /  /          
                 / \  \   | |__| |  /  /\  \   | |_| |  |  |/  /          
                |  |  |   |  __  | /  /__\  \  |    /   |      \           
                |  |  |   | |  | | |   __   |  |    \   |  |\   \          
                \     /   | |  | | |  |  |  |  | |\  \  |  | \   \       
                 \___/    |_|  |_| |__|  |__|  |_| \__\ |__|  \__/        
                                                                              
                      - O R C A' S   B I G   F R I E N D -                    
                                      &                                       
                       - I N T E G R A L  F E E D E R -                       
                                                                              
 v1 FN, 2020, v2 2021, v3 2022-2024                                           
------------------------------------------------------------------------------


----------------------
SHARK INTEGRAL PACKAGE
----------------------

Number of atoms                             ...     33
Number of basis functions                   ...     93
Number of shells                            ...     63
Maximum angular momentum                    ...      1
Integral batch strategy                     ... SHARK/LIBINT Hybrid
RI-J (if used) integral strategy            ... SPLIT-RIJ (Revised 2003 algorithm where possible)
Printlevel                                  ...      1
Contraction scheme used                     ... SEGMENTED contraction
Prescreening option                         ... SCHWARTZ
   Thresh                                   ... 1.000e-10
   Tcut                                     ... 1.000e-11
   Tpresel                                  ... 1.000e-11 
Coulomb Range Separation                    ... NOT USED
Exchange Range Separation                   ... NOT USED
Multipole approximations                    ... NOT USED
Finite Nucleus Model                        ... NOT USED
CABS basis                                  ... NOT available
Auxiliary Coulomb fitting basis             ... AVAILABLE
   # of basis functions in Aux-J            ...    933
   # of shells in Aux-J                     ...    315
   Maximum angular momentum in Aux-J        ...      4
Auxiliary J/K fitting basis                 ... NOT available
Auxiliary Correlation fitting basis         ... NOT available
Auxiliary 'external' fitting basis          ... NOT available

Checking pre-screening integrals            ... done (  0.0 sec) Dimension = 63
Check shell pair data                       ... done (  0.0 sec)
Shell pair information
Shell pair cut-off parameter TPreSel        ...   1.0e-11
Total number of shell pairs                 ...      2016
Shell pairs after pre-screening             ...      1648
Total number of primitive shell pairs       ...     18144
Primitive shell pairs kept                  ...      9626
          la=0 lb=0:    911 shell pairs
          la=1 lb=0:    624 shell pairs
          la=1 lb=1:    113 shell pairs

Calculating one electron integrals          ... done (  0.0 sec)
Calculating RI/J V-Matrix + Cholesky decomp.... done (  0.0 sec)
Calculating Nuclear repulsion               ... done (  0.0 sec) ENN=    953.832713264244 Eh

Diagonalization of the overlap matrix:
Smallest eigenvalue                        ... 1.842e-01
Time for diagonalization                   ...    0.001 sec
Threshold for overlap eigenvalues          ... 1.000e-07
Number of eigenvalues below threshold      ... 0
Time for construction of square roots      ...    0.001 sec
Total time needed                          ...    0.003 sec

-------------------
DFT GRID GENERATION
-------------------

General Integration Accuracy     IntAcc      ... 4.388
Radial Grid Type                 RadialGrid  ... OptM3 with GC (2021)
Angular Grid (max. ang.)         AngularGrid ... 4 (Lebedev-302)
Angular grid pruning method      GridPruning ... 4 (adaptive)
Weight generation scheme         WeightScheme... mBecke (2022)
Basis function cutoff            BFCut       ... 1.0000e-10
Integration weight cutoff        WCut        ... 1.0000e-14
Partially contracted basis set               ... off
Rotationally invariant grid construction     ... off
Angular grids for H and He will be reduced by one unit

Total number of grid points                  ...   147135
Total number of batches                      ...     2315
Average number of points per batch           ...       63
Average number of grid points per atom       ...     4459
Initializing property integral containers    ... done (  0.0 sec)

SHARK setup successfully completed in   0.8 seconds

Maximum memory used throughout the entire STARTUP-calculation: 51.6 MB
-------------------------------------------------------------------------------
                                 ORCA GUESS
                   Start orbitals & Density for SCF / CASSCF
-------------------------------------------------------------------------------

------------
SCF SETTINGS
------------
Hamiltonian:
 Density Functional     Method          .... DFT(GTOs)
 Exchange Functional    Exchange        .... PBE
   PBE kappa parameter   XKappa         ....  0.804000
   PBE mue parameter    XMuePBE         ....  0.219520
 Correlation Functional Correlation     .... PBE
   PBE beta parameter  CBetaPBE         ....  0.066725
 LDA part of GGA corr.  LDAOpt          .... PW91-LDA
 Gradients option       PostSCFGGA      .... off
   NL short-range parameter             ....  6.400000
 RI-approximation to the Coulomb term is turned on
   Number of AuxJ basis functions       .... 933


General Settings:
 Integral files         IntName         .... Ibuprofen\Ibuprofen_PBE_STO-3G\Ibuprofen_PBE_STO-3G.orcainp
 Hartree-Fock type      HFTyp           .... RHF
 Total Charge           Charge          ....    0
 Multiplicity           Mult            ....    1
 Number of Electrons    NEL             ....  112
 Basis Dimension        Dim             ....   93
 Nuclear Repulsion      ENuc            ....    953.8327132642 Eh

Convergence Acceleration:
 AO-DIIS                CNVDIIS         .... on
   Start iteration      DIISMaxIt       ....    12
   Startup error        DIISStart       ....  0.200000
   # of expansion vecs  DIISMaxEq       ....     5
   Bias factor          DIISBfac        ....   1.050
   Max. coefficient     DIISMaxC        ....  10.000
 MO-DIIS                CNVKDIIS        .... off
 Trust-Rad. Augm. Hess. CNVTRAH         .... auto
   Auto Start mean grad. ratio tolernc. ....  1.125000
   Auto Start start iteration           ....     1
   Auto Start num. interpolation iter.  ....    10
   Max. Number of Micro iterations      ....    24
   Max. Number of Macro iterations      .... Maxiter - #DIIS iter
   Number of Davidson start vectors     ....     2
   Converg. threshold    (grad. norm)   ....   5.000e-05
   Grad. Scal. Fac. for Micro threshold ....   0.100
   Minimum threshold for Micro iter.    ....   1.000e-02
   NR start threshold (gradient norm)   ....   1.000e-04
   Initial trust radius                 ....   0.400
   Minimum AH scaling param. (alpha)    ....   1.000
   Maximum AH scaling param. (alpha)    .... 1000.000
   Quad. conv. algorithm                .... NR
   White noise on init. David. guess    .... on
   Maximum white noise                  ....   0.010
   Pseudo random numbers                .... off
   Inactive MOs                         .... canonical
   Orbital update algorithm             .... Taylor
   Preconditioner                       .... Diag
   Full preconditioner red. dimension   ....   250
 SOSCF                  CNVSOSCF        .... on
   Start iteration      SOSCFMaxIt      ....   150
   Startup grad/error   SOSCFStart      ....  0.003300
   Hessian update       SOSCFHessUp     .... L-BFGS
 Level Shifting         CNVShift        .... on
   Level shift para.    LevelShift      ....    0.2500
   Turn off err/grad.   ShiftErr        ....    0.0010
 Zerner damping         CNVZerner       .... off
 Static damping         CNVDamp         .... on
   Fraction old density DampFac         ....    0.7000
   Max. Damping (<1)    DampMax         ....    0.9800
   Min. Damping (>=0)   DampMin         ....    0.0000
   Turn off err/grad.   DampErr         ....    0.1000

SCF Procedure:
 Maximum # iterations   MaxIter         ....   125
 SCF integral mode      SCFMode         .... Direct
   Integral package                     .... SHARK and LIBINT hybrid scheme
 Reset frequency        DirectResetFreq ....    20
 Integral Threshold     Thresh          ....  1.000e-10 Eh
 Primitive CutOff       TCut            ....  1.000e-11 Eh

Convergence Tolerance:
 Convergence Check Mode ConvCheckMode   .... Total+1el-Energy
 Convergence forced     ConvForced      .... 1
 Energy Change          TolE            ....  1.000e-06 Eh
 1-El. energy change                    ....  1.000e-03 Eh
 Orbital Gradient       TolG            ....  5.000e-05
 Orbital Rotation angle TolX            ....  5.000e-05
 DIIS Error             TolErr          ....  1.000e-06

---------------------
INITIAL GUESS: MOREAD
---------------------
Guess MOs are being read from file: Ibuprofen\Ibuprofen_PBE_STO-3G\Ibuprofen_PBE_STO-3G.orcainp.ges
Input Geometry matches current geometry (good)
Input basis set matches current basis set (good)
Occupation numbers will be reassigned to an Aufbau configuration
MOs were renormalized
MOs were reorthogonalized (Cholesky)
                      ------------------
                      INITIAL GUESS DONE (   0.0 sec)
                      ------------------
----------------------
INITIAL GUESS ORBITALS
----------------------
                      0         1         2         3         4         5   
                 -18.54803 -18.48146  -9.78685  -9.74049  -9.72648  -9.72409
                   2.00000   2.00000   2.00000   2.00000   2.00000   2.00000
                  --------  --------  --------  --------  --------  --------
  0C   1s        -0.000001  0.000000  0.000002  0.000001  0.022161 -0.000022
  0C   2s         0.000008 -0.000000  0.000002  0.000001  0.008609 -0.000008
  0C   1pz        0.000000  0.000000 -0.000000  0.000000 -0.003853 -0.000002
  0C   1px        0.000007 -0.000000  0.000001  0.000000 -0.001312 -0.000004
  0C   1py        0.000001 -0.000000  0.000000  0.000000 -0.004405 -0.000001
  1C   1s         0.000000 -0.000000 -0.000000 -0.000001 -0.984329  0.000144
  1C   2s        -0.000000  0.000000 -0.000000 -0.000000 -0.046647 -0.000006
  1C   1pz        0.000000 -0.000000  0.000000  0.000000  0.000244  0.000008
  1C   1px       -0.000000 -0.000000 -0.000000 -0.000000 -0.000250  0.000002
  1C   1py       -0.000000  0.000000 -0.000000 -0.000000  0.000287 -0.000000
  2C   1s        -0.000000  0.000000  0.000000  0.000000  0.023344  0.000002
  2C   2s         0.000000 -0.000000  0.000000  0.000000  0.008667  0.000001
  2C   1pz        0.000000 -0.000000  0.000000 -0.000000  0.000048 -0.000000
  2C   1px        0.000000 -0.000000  0.000000  0.000000  0.005898  0.000001
  2C   1py        0.000000 -0.000000  0.000000  0.000000  0.001105  0.000000
  3C   1s        -0.000000  0.000000 -0.000000  0.000029  0.098565  0.001562
  3C   2s        -0.000000 -0.000000 -0.000000  0.000009  0.012014  0.000143
  3C   1pz        0.000001 -0.000000  0.000000 -0.000000  0.005422 -0.000005
  3C   1px        0.000000 -0.000000 -0.000000  0.000006 -0.001799  0.000059
  3C   1py       -0.000000 -0.000000  0.000000  0.000001 -0.001289  0.000005
  4C   1s         0.000000 -0.000000 -0.000003  0.000115 -0.004453 -0.013965
  4C   2s         0.000003  0.000000 -0.000001 -0.000016 -0.001016 -0.000856
  4C   1pz       -0.000004  0.000000 -0.000000 -0.000001 -0.000038  0.000014
  4C   1px       -0.000001  0.000000 -0.000002  0.000018  0.000733 -0.000237
  4C   1py        0.000000  0.000000  0.000000  0.000002  0.000063 -0.000019
  5C   1s        -0.000000 -0.000000 -0.000003  0.000261 -0.000391  0.001366
  5C   2s         0.000007  0.000000  0.000000  0.000059  0.000012  0.001012
  5C   1pz        0.000004 -0.000000  0.000005 -0.000008 -0.000037 -0.000038
  5C   1px        0.000010  0.000000  0.000000  0.000031  0.000021  0.000364
  5C   1py       -0.000003 -0.000000 -0.000000  0.000067 -0.000036  0.000252
  6C   1s         0.000016 -0.000001 -0.000084 -0.000423 -0.000042 -0.045349
  6C   2s        -0.000039  0.000003 -0.000022 -0.000583 -0.000011 -0.011747
  6C   1pz       -0.000106  0.000012 -0.000052  0.000045  0.000004  0.000571
  6C   1px       -0.000009  0.000003 -0.000012 -0.000332  0.000007 -0.002731
  6C   1py        0.000007  0.000002 -0.000014 -0.000212 -0.000004 -0.006085
  7C   1s         0.000086  0.000007  0.000286  0.034072 -0.000082  0.987254
  7C   2s        -0.000493  0.000001 -0.000182  0.009319 -0.000002  0.045837
  7C   1pz       -0.000588 -0.000082 -0.000059 -0.000422 -0.000001  0.000514
  7C   1px       -0.000018  0.000010 -0.000123  0.006106  0.000002 -0.002175
  7C   1py       -0.000064 -0.000036  0.000018  0.000414  0.000000 -0.000203
  8C   1s         0.000022  0.000000 -0.000070 -0.000507 -0.000054 -0.045693
  8C   2s        -0.000069  0.000007 -0.000094 -0.000608 -0.000008 -0.011714
  8C   1pz       -0.000138  0.000008  0.000030  0.000023  0.000006 -0.000105
  8C   1px       -0.000023  0.000000  0.000021 -0.000285  0.000005 -0.003732
  8C   1py       -0.000027 -0.000015 -0.000020  0.000063  0.000005  0.005531
  9C   1s         0.000000  0.000000  0.000008  0.000301 -0.000213  0.001375
  9C   2s         0.000006 -0.000001  0.000021  0.000086  0.000026  0.001010
  9C   1pz        0.000003  0.000001 -0.000013 -0.000003 -0.000039 -0.000014
  9C   1px        0.000009 -0.000001  0.000014  0.000060 -0.000015  0.000401
  9C   1py        0.000007  0.000001  0.000003 -0.000056  0.000003 -0.000184
 10C   1s         0.000036 -0.000022  0.011848 -0.989041  0.000001  0.035524
 10C   2s        -0.000260  0.000152  0.006913 -0.046046 -0.000000 -0.005814
 10C   1pz       -0.000442 -0.000114  0.004494  0.000340 -0.000000 -0.000319
 10C   1px        0.000266  0.000445  0.002267  0.000135  0.000000  0.005865
 10C   1py        0.000004  0.000154  0.002070  0.000772  0.000000  0.000430
 11C   1s        -0.000001 -0.000015  0.000379  0.021380  0.000000 -0.004753
 11C   2s        -0.000031  0.000079 -0.000325  0.008558 -0.000000 -0.000272
 11C   1pz        0.000046  0.000004  0.000204  0.004652 -0.000000 -0.000141
 11C   1px        0.000035  0.000108  0.000067 -0.001947 -0.000000  0.000223
 11C   1py        0.000061  0.000082  0.000188 -0.003252 -0.000000  0.000122
 12C   1s        -0.000631  0.000720 -0.990827 -0.013417  0.000000  0.000808
 12C   2s         0.005070 -0.008079 -0.039003  0.006442 -0.000000 -0.000056
 12C   1pz        0.004374 -0.000599 -0.000243 -0.004848 -0.000000  0.000135
 12C   1px       -0.002972 -0.007050 -0.000967 -0.002397  0.000000  0.000178
 12C   1py       -0.000131 -0.002763 -0.000307 -0.002110 -0.000000  0.000070
 13O   1s        -0.993377 -0.001009 -0.000707  0.000032  0.000000 -0.000124
 13O   2s        -0.029295  0.000332  0.005865 -0.000295 -0.000000  0.000935
 13O   1pz        0.004068  0.000089 -0.002956  0.000256  0.000000 -0.000147
 13O   1px        0.000661  0.000455  0.002924  0.000156  0.000000 -0.000587
 13O   1py        0.001039  0.000192  0.000394  0.000108  0.000000 -0.000259
 14O   1s        -0.000922  0.993443 -0.000656  0.000019  0.000000  0.000012
 14O   2s        -0.000304  0.029375  0.008038 -0.000079 -0.000000 -0.000091
 14O   1pz       -0.000536 -0.000391 -0.000155  0.000383 -0.000000  0.000023
 14O   1px        0.000274 -0.005412 -0.003349  0.000015 -0.000000  0.000042
 14O   1py       -0.000018 -0.002110 -0.001299  0.000100  0.000000  0.000037
 15H   1s        -0.000000  0.000000 -0.000000 -0.000000 -0.000371  0.000001
 16H   1s        -0.000000  0.000000 -0.000000 -0.000000 -0.000296  0.000001
 17H   1s        -0.000017  0.000000 -0.000003 -0.000001 -0.000367  0.000015
 18H   1s        -0.000000 -0.000000 -0.000000 -0.000000  0.009651  0.000003
 19H   1s         0.000000 -0.000000 -0.000000  0.000000 -0.000309 -0.000000
 20H   1s         0.000000 -0.000000  0.000000  0.000000 -0.000391 -0.000000
 21H   1s         0.000000 -0.000000  0.000000  0.000000 -0.000375 -0.000000
 22H   1s         0.000000  0.000000  0.000000 -0.000000 -0.001043 -0.000009
 23H   1s         0.000000 -0.000000  0.000000 -0.000001 -0.001101 -0.000010
 24H   1s        -0.000001  0.000000 -0.000000  0.000012 -0.000148 -0.000103
 25H   1s        -0.000009 -0.000001 -0.000003 -0.000020  0.000001  0.000586
 26H   1s        -0.000014  0.000012  0.000141  0.000278 -0.000000  0.000584
 27H   1s        -0.000001 -0.000000 -0.000004  0.000005 -0.000009 -0.000104
 28H   1s        -0.000036  0.000024  0.000107  0.009702 -0.000000 -0.000235
 29H   1s        -0.000018 -0.000005  0.000140 -0.000301  0.000000 -0.000033
 30H   1s         0.000018  0.000011  0.000211 -0.000360  0.000000 -0.000120
 31H   1s         0.000044 -0.000252  0.000316 -0.000351  0.000000 -0.000129
 32H   1s         0.006672 -0.000141  0.001378  0.000264  0.000001 -0.002667
                      6         7         8         9        10        11   
                  -9.72251  -9.72037  -9.71420  -9.71378  -9.71363  -9.71125
                   2.00000   2.00000   2.00000   2.00000   2.00000   2.00000
                  --------  --------  --------  --------  --------  --------
  0C   1s        -0.001494 -0.004135 -0.000003  0.000239 -0.000135 -0.001445
  0C   2s        -0.000492 -0.000693 -0.000001  0.000045 -0.000024 -0.000233
  0C   1pz        0.000019  0.000459 -0.000000  0.000006 -0.000001 -0.000039
  0C   1px       -0.000041  0.000101 -0.000000  0.000026 -0.000012 -0.000133
  0C   1py        0.000063  0.000337 -0.000000  0.000003 -0.000002 -0.000016
  1C   1s         0.032365  0.094728  0.000001 -0.000028  0.000127  0.000018
  1C   2s        -0.000637 -0.002474 -0.000000  0.000000 -0.000005  0.000018
  1C   1pz        0.001561  0.005241  0.000000 -0.000002  0.000000 -0.000008
  1C   1px       -0.000297 -0.001853  0.000000  0.000000 -0.000001 -0.000004
  1C   1py       -0.000294 -0.001294  0.000000 -0.000001  0.000007 -0.000014
  2C   1s        -0.000589 -0.004937  0.000000  0.000008  0.000017  0.000008
  2C   2s        -0.000094 -0.000853  0.000000  0.000001  0.000002 -0.000002
  2C   1pz       -0.000033  0.000139  0.000000 -0.000000 -0.000001 -0.000003
  2C   1px       -0.000062 -0.000515  0.000000  0.000001  0.000000 -0.000003
  2C   1py       -0.000000 -0.000125  0.000000 -0.000000 -0.000000  0.000002
  3C   1s         0.275901  0.945605  0.000005 -0.000148  0.000551 -0.002821
  3C   2s         0.019946  0.041800 -0.000000  0.000020 -0.000038 -0.000066
  3C   1pz       -0.000800 -0.001025  0.000000 -0.000006  0.000001  0.000027
  3C   1px        0.005685 -0.001559 -0.000000  0.000008 -0.000032  0.000162
  3C   1py        0.000611  0.000031 -0.000001  0.000077  0.000047 -0.000104
  4C   1s        -0.948079  0.278505 -0.000187  0.007906 -0.011026 -0.037591
  4C   2s        -0.046211  0.005538  0.000030 -0.001398  0.002066  0.006215
  4C   1pz       -0.000079 -0.000445 -0.000002  0.000114 -0.000016 -0.000554
  4C   1px       -0.000237  0.006515  0.000014 -0.000527  0.000984  0.002252
  4C   1py       -0.000007  0.000550  0.000018 -0.001288 -0.000612  0.006431
  5C   1s         0.039652 -0.014617 -0.000217 -0.027493 -0.168374  0.139749
  5C   2s         0.011213 -0.003146 -0.000022 -0.003252 -0.017082  0.006391
  5C   1pz       -0.000145  0.000022 -0.000008  0.000076  0.000433 -0.000021
  5C   1px       -0.003654  0.000884 -0.000009 -0.001340 -0.006535 -0.000062
  5C   1py        0.005293 -0.001656 -0.000004  0.000013 -0.000872  0.000328
  6C   1s        -0.000525 -0.000874  0.001445  0.213394  0.950403  0.011414
  6C   2s        -0.000649  0.000135  0.000111  0.010098  0.045015 -0.000708
  6C   1pz       -0.000023  0.000015  0.000046 -0.000011  0.000086 -0.000068
  6C   1px        0.000458 -0.000097  0.000025 -0.000273 -0.002131  0.000821
  6C   1py       -0.000024 -0.000041  0.000025  0.000307  0.000681  0.000311
  7C   1s        -0.014059  0.002393 -0.003023 -0.035406  0.055174 -0.007703
  7C   2s        -0.000458  0.000082 -0.000312  0.005482 -0.008691  0.001031
  7C   1pz        0.000004 -0.000005  0.000002 -0.000298 -0.000425 -0.000047
  7C   1px       -0.000171  0.000076  0.000131 -0.003118  0.003654 -0.000583
  7C   1py       -0.000013  0.000005 -0.000097  0.006336  0.004535  0.001014
  8C   1s        -0.000606 -0.000684  0.020611 -0.948298  0.206442 -0.186729
  8C   2s        -0.000658  0.000170  0.001056 -0.045079  0.009864  0.000948
  8C   1pz       -0.000031  0.000011 -0.000035 -0.000233  0.000068  0.000382
  8C   1px        0.000448 -0.000122  0.000012  0.002021 -0.000687 -0.006267
  8C   1py        0.000103  0.000023  0.000022  0.001066 -0.000115 -0.000483
  9C   1s         0.040967 -0.015231 -0.002963  0.181165 -0.053119 -0.961882
  9C   2s         0.011254 -0.003204 -0.000326  0.017596 -0.004575 -0.042124
  9C   1pz        0.000514 -0.000167  0.000017 -0.000394  0.000082 -0.000053
  9C   1px       -0.002700  0.000537 -0.000129  0.006528 -0.001586  0.000272
  9C   1py       -0.005830  0.001739 -0.000008  0.000302  0.000130  0.000902
 10C   1s        -0.000586  0.000140 -0.023129 -0.001253  0.001489 -0.000479
 10C   2s         0.000109 -0.000031  0.006448  0.000161 -0.000063  0.000060
 10C   1pz        0.000005 -0.000002 -0.004704 -0.000081  0.000015 -0.000001
 10C   1px       -0.000105  0.000028  0.001865 -0.000060  0.000182 -0.000070
 10C   1py       -0.000010  0.000003  0.003260 -0.000040 -0.000114  0.000043
 11C   1s         0.000085 -0.000023 -0.989501 -0.019861  0.005695 -0.000958
 11C   2s         0.000006 -0.000002 -0.047055 -0.000921  0.000257 -0.000047
 11C   1pz        0.000001 -0.000000  0.000398  0.000022 -0.000033  0.000006
 11C   1px       -0.000002 -0.000000 -0.000252 -0.000088  0.000039 -0.000029
 11C   1py       -0.000001 -0.000000 -0.000299  0.000017 -0.000014  0.000002
 12C   1s        -0.000009  0.000002 -0.000748  0.000027 -0.000072 -0.000005
 12C   2s        -0.000000  0.000000  0.000046 -0.000031  0.000026 -0.000006
 12C   1pz       -0.000002  0.000000 -0.000118 -0.000005  0.000016  0.000000
 12C   1px       -0.000000 -0.000000  0.000071  0.000000 -0.000026 -0.000004
 12C   1py       -0.000001  0.000000  0.000076  0.000011 -0.000029  0.000007
 13O   1s         0.000002 -0.000000 -0.000004  0.000033 -0.000040  0.000008
 13O   2s        -0.000016  0.000002  0.000027 -0.000223  0.000258 -0.000055
 13O   1pz        0.000003 -0.000000 -0.000029  0.000058 -0.000073  0.000015
 13O   1px        0.000010 -0.000002  0.000036  0.000145 -0.000188  0.000037
 13O   1py        0.000005 -0.000001 -0.000026  0.000078 -0.000081  0.000018
 14O   1s        -0.000000  0.000000  0.000020 -0.000001 -0.000001 -0.000000
 14O   2s         0.000001 -0.000000 -0.000138  0.000005  0.000007  0.000002
 14O   1pz       -0.000000  0.000000  0.000061 -0.000001 -0.000001 -0.000000
 14O   1px       -0.000000  0.000000  0.000024 -0.000004 -0.000005 -0.000000
 14O   1py       -0.000000  0.000000  0.000031 -0.000005  0.000002 -0.000002
 15H   1s         0.000022 -0.000109  0.000000 -0.000005  0.000002  0.000030
 16H   1s         0.000040  0.000091 -0.000000  0.000003  0.000001 -0.000005
 17H   1s         0.000576 -0.000156  0.000001 -0.000079  0.000036  0.000402
 18H   1s        -0.000129 -0.000855  0.000000 -0.000003  0.000013 -0.000003
 19H   1s         0.000025  0.000090  0.000000 -0.000001 -0.000001 -0.000003
 20H   1s        -0.000022 -0.000091 -0.000000  0.000000 -0.000000  0.000000
 21H   1s         0.000034  0.000154 -0.000000  0.000000 -0.000002 -0.000001
 22H   1s        -0.002787 -0.009211 -0.000000  0.000011 -0.000000  0.000136
 23H   1s        -0.002661 -0.009233 -0.000000 -0.000003  0.000002  0.000061
 24H   1s        -0.000573  0.000015  0.000002  0.000352  0.001762 -0.001218
 25H   1s         0.000083 -0.000029 -0.000009 -0.001962 -0.009118  0.000007
 26H   1s         0.000084 -0.000034 -0.000446  0.009075 -0.002065  0.001605
 27H   1s        -0.000539  0.000151  0.000036 -0.001910  0.000489  0.009138
 28H   1s        -0.000004  0.000002  0.000065  0.000068 -0.000151  0.000024
 29H   1s        -0.000005  0.000002  0.009662  0.000107 -0.000055  0.000020
 30H   1s         0.000002 -0.000000  0.009634  0.000215 -0.000071  0.000012
 31H   1s         0.000002 -0.000000  0.009642  0.000227 -0.000068  0.000021
 32H   1s         0.000044 -0.000007  0.000084  0.000572 -0.000646  0.000136
                     12        13        14        15        16        17   
                  -9.71084  -9.70269  -9.70145  -0.90916  -0.84092  -0.73263
                   2.00000   2.00000   2.00000   2.00000   2.00000   2.00000
                  --------  --------  --------  --------  --------  --------
  0C   1s         0.000576 -0.036773 -0.989009 -0.000007  0.000019 -0.012867
  0C   2s         0.000081 -0.001778 -0.047071  0.000020 -0.000045  0.033236
  0C   1pz        0.000005  0.000011 -0.000462 -0.000005  0.000014 -0.007830
  0C   1px        0.000043  0.000143 -0.000143  0.000011 -0.000012  0.000230
  0C   1py        0.000004  0.000033 -0.000512 -0.000001  0.000006 -0.005116
  1C   1s        -0.000292  0.024431 -0.025034 -0.000011  0.000036 -0.025923
  1C   2s         0.000045 -0.006055  0.006594  0.000024 -0.000086  0.067638
  1C   1pz        0.000026  0.000181  0.003845 -0.000007  0.000022 -0.010619
  1C   1px       -0.000006  0.005927  0.001115  0.000009 -0.000023  0.007047
  1C   1py       -0.000047  0.001284  0.004365  0.000003 -0.000007  0.003865
  2C   1s        -0.000204  0.989001 -0.036292 -0.000002  0.000007 -0.010333
  2C   2s        -0.000027  0.047036 -0.001706  0.000004 -0.000018  0.026875
  2C   1pz        0.000004  0.000012  0.000086 -0.000000  0.000002 -0.001165
  2C   1px       -0.000006 -0.000707  0.000086  0.000002 -0.000008  0.007599
  2C   1py       -0.000003 -0.000119  0.000120  0.000001 -0.000002  0.001926
  3C   1s         0.003535  0.002537 -0.002306 -0.000043  0.000117 -0.046024
  3C   2s         0.000106  0.000087 -0.000100  0.000113 -0.000306  0.122962
  3C   1pz       -0.000036 -0.000030  0.000118 -0.000002  0.000006  0.002307
  3C   1px       -0.000191  0.000171  0.000031  0.000061 -0.000136  0.028744
  3C   1py       -0.000063  0.000010  0.000071  0.000006 -0.000012  0.001575
  4C   1s         0.048584  0.000990  0.000242 -0.000339  0.000637 -0.102563
  4C   2s        -0.008379 -0.000116 -0.000055  0.000797 -0.001530  0.260401
  4C   1pz       -0.000040 -0.000083 -0.000035  0.000002 -0.000012 -0.001350
  4C   1px       -0.004140  0.000102 -0.000022  0.000319 -0.000533  0.044500
  4C   1py        0.004362  0.000019  0.000040  0.000054 -0.000078  0.003379
  5C   1s         0.964446  0.000177  0.000367 -0.000542  0.000868 -0.094296
  5C   2s         0.042367  0.000003  0.000019  0.001311 -0.002103  0.237830
  5C   1pz       -0.000063 -0.000002 -0.000028 -0.000013 -0.000007 -0.004168
  5C   1px       -0.000289 -0.000000 -0.000003  0.000575 -0.000703  0.020282
  5C   1py        0.000806  0.000002  0.000006  0.000248 -0.000443  0.051957
  6C   1s         0.172020  0.000015  0.000009 -0.002167  0.002280 -0.097971
  6C   2s        -0.001691 -0.000001 -0.000002  0.004735 -0.005136  0.247732
  6C   1pz       -0.000390  0.000001  0.000002 -0.000109 -0.000172 -0.000627
  6C   1px        0.006327  0.000001  0.000002  0.001256 -0.000829 -0.024661
  6C   1py        0.000501 -0.000001 -0.000001  0.001959 -0.001817  0.051684
  7C   1s         0.008970  0.000004 -0.000013 -0.008369  0.005668 -0.112039
  7C   2s        -0.001192  0.000000  0.000002  0.018710 -0.012738  0.286891
  7C   1pz       -0.000064  0.000000  0.000001  0.004416 -0.004297  0.007540
  7C   1px        0.000504  0.000001  0.000000  0.006344 -0.000927 -0.041634
  7C   1py        0.000769  0.000000  0.000000  0.002069 -0.001033 -0.003026
  8C   1s         0.036219  0.000013  0.000038 -0.002948  0.002841 -0.098216
  8C   2s         0.000191  0.000001 -0.000001  0.006518 -0.006515  0.248624
  8C   1pz       -0.000070 -0.000000  0.000001  0.000915 -0.001049  0.006028
  8C   1px        0.000926 -0.000000 -0.000000  0.002523 -0.001597 -0.015052
  8C   1py        0.000316  0.000001  0.000000 -0.001673  0.001617 -0.054874
  9C   1s         0.133400  0.000045  0.001566 -0.000646  0.000986 -0.094270
  9C   2s         0.005636 -0.000002 -0.000018  0.001577 -0.002378  0.237821
  9C   1pz       -0.000006  0.000006 -0.000092 -0.000023 -0.000049  0.001688
  9C   1px       -0.000036 -0.000004  0.000008  0.000771 -0.000913  0.029348
  9C   1py        0.000074  0.000005  0.000011 -0.000128  0.000289 -0.047723
 10C   1s         0.000551  0.000001 -0.000001 -0.021477 -0.004146 -0.052563
 10C   2s        -0.000058 -0.000000 -0.000000  0.052729  0.013302  0.142063
 10C   1pz       -0.000011 -0.000000  0.000001  0.022757  0.001451 -0.000872
 10C   1px        0.000099  0.000000 -0.000000  0.006057  0.013588 -0.034074
 10C   1py        0.000017  0.000000 -0.000000  0.007715  0.005384 -0.002428
 11C   1s         0.000342  0.000000 -0.000001 -0.004831 -0.004494 -0.023504
 11C   2s         0.000008 -0.000000  0.000000  0.011441  0.010526  0.061568
 11C   1pz       -0.000012 -0.000000  0.000000  0.005565  0.004732  0.012565
 11C   1px        0.000008 -0.000000 -0.000000 -0.000113  0.001910 -0.009647
 11C   1py       -0.000004  0.000000 -0.000000 -0.001421 -0.000012 -0.008099
 12C   1s        -0.000011 -0.000000 -0.000002 -0.126589 -0.056332 -0.003950
 12C   2s         0.000005  0.000000  0.000001  0.307774  0.131907  0.010098
 12C   1pz        0.000005 -0.000000  0.000000  0.072922 -0.048179 -0.027282
 12C   1px       -0.000006 -0.000000 -0.000001  0.021108  0.199828 -0.009731
 12C   1py       -0.000009 -0.000000 -0.000000  0.024186  0.063142 -0.008301
 13O   1s        -0.000008 -0.000000 -0.000001 -0.174857  0.141077  0.017530
 13O   2s         0.000050  0.000000  0.000008  0.617735 -0.512287 -0.067368
 13O   1pz       -0.000014 -0.000000 -0.000002 -0.138554  0.093083  0.005045
 13O   1px       -0.000038 -0.000000 -0.000006 -0.005071  0.050835 -0.002218
 13O   1py       -0.000015 -0.000000 -0.000002 -0.029470  0.036298  0.001049
 14O   1s        -0.000000 -0.000000 -0.000000 -0.116307 -0.179893  0.004741
 14O   2s         0.000002  0.000000  0.000000  0.396437  0.627440 -0.016752
 14O   1pz        0.000000  0.000000 -0.000000 -0.002256 -0.016693 -0.003862
 14O   1px       -0.000001 -0.000000 -0.000000 -0.117882 -0.151682  0.003121
 14O   1py        0.000001 -0.000000 -0.000000 -0.044658 -0.060669  0.000557
 15H   1s        -0.000008  0.000402  0.009660  0.000002 -0.000006  0.005609
 16H   1s        -0.000004  0.000391  0.009654  0.000003 -0.000008  0.006827
 17H   1s        -0.000114  0.000203  0.009670  0.000004 -0.000040  0.010083
 18H   1s        -0.000139 -0.000087  0.000084  0.000009 -0.000024  0.015050
 19H   1s         0.000007 -0.009656  0.000313  0.000001 -0.000003  0.005434
 20H   1s         0.000004 -0.009657  0.000319  0.000000 -0.000002  0.004700
 21H   1s         0.000013 -0.009646  0.000509  0.000000 -0.000003  0.005313
 22H   1s        -0.000142  0.000024  0.000009  0.000016 -0.000046  0.023582
 23H   1s        -0.000142 -0.000016  0.000179  0.000014 -0.000044  0.023284
 24H   1s        -0.009199  0.000005 -0.000004  0.000128 -0.000254  0.041727
 25H   1s        -0.001486 -0.000001 -0.000000  0.000806 -0.000894  0.043809
 26H   1s        -0.000413 -0.000000 -0.000001  0.001666 -0.001221  0.044303
 27H   1s        -0.001380 -0.000004 -0.000037  0.000154 -0.000294  0.041578
 28H   1s        -0.000073  0.000000  0.000000  0.006631  0.002335  0.028384
 29H   1s        -0.000004  0.000000  0.000000  0.001953  0.002007  0.013626
 30H   1s        -0.000006  0.000000 -0.000000  0.001187  0.001149  0.012561
 31H   1s        -0.000005 -0.000000  0.000000  0.003991  0.006261  0.010375
 32H   1s        -0.000126 -0.000000 -0.000020  0.106150 -0.108346  0.002566
                     18        19        20        21        22        23   
                  -0.68909  -0.66474  -0.62664  -0.61989  -0.57193  -0.56662
                   2.00000   2.00000   2.00000   2.00000   2.00000   2.00000
                  --------  --------  --------  --------  --------  --------
  0C   1s        -0.068845 -0.067960  0.003842 -0.056968  0.176534  0.010824
  0C   2s         0.183425  0.184022 -0.010663  0.158793 -0.508760 -0.031011
  0C   1pz       -0.029599 -0.020715 -0.000780 -0.001225 -0.020335 -0.017572
  0C   1px       -0.008140 -0.012554  0.002863 -0.014311 -0.020335  0.018020
  0C   1py       -0.026467 -0.024377  0.003582 -0.013811 -0.018716  0.004186
  1C   1s        -0.116667 -0.098271  0.008133 -0.046579  0.001133 -0.004934
  1C   2s         0.313021  0.267852 -0.022743  0.130590 -0.003157  0.015332
  1C   1pz       -0.018564  0.007700 -0.004165  0.051476 -0.097282 -0.075328
  1C   1px        0.001808 -0.018783  0.003971 -0.042855 -0.091643  0.083594
  1C   1py        0.013963  0.009471  0.004442  0.002516 -0.086158  0.024166
  2C   1s        -0.067309 -0.073292  0.009879 -0.068395 -0.127426  0.108074
  2C   2s         0.179434  0.198389 -0.027403  0.190805  0.367616 -0.313146
  2C   1pz       -0.002778  0.000716 -0.000757  0.009169 -0.023132 -0.018535
  2C   1px        0.038392  0.033714 -0.002653  0.014070 -0.020286  0.024297
  2C   1py        0.010175  0.009368 -0.000132  0.005313 -0.019130  0.006119
  3C   1s        -0.108084 -0.032002 -0.009026  0.072305 -0.049676 -0.124422
  3C   2s         0.291883  0.086180  0.025553 -0.204587  0.144495  0.363146
  3C   1pz        0.030705  0.037902 -0.005850  0.035341 -0.023130 -0.015969
  3C   1px        0.010177 -0.042929  0.007302 -0.060567 -0.028627 -0.003202
  3C   1py       -0.004612 -0.009006  0.018406 -0.005321 -0.021585  0.005064
  4C   1s        -0.076791  0.062171 -0.015396  0.100523  0.003166  0.008590
  4C   2s         0.201062 -0.164329  0.041889 -0.274991 -0.009518 -0.023548
  4C   1pz        0.008447  0.009208 -0.007641  0.000889 -0.008594  0.008174
  4C   1px       -0.035852 -0.057696 -0.013371  0.032860 -0.035902 -0.136505
  4C   1py       -0.004858 -0.005206  0.122015  0.023596 -0.006439 -0.000317
  5C   1s        -0.025323  0.061993  0.119579  0.043548  0.016517  0.069074
  5C   2s         0.066243 -0.162120 -0.323529 -0.120016 -0.046134 -0.192725
  5C   1pz        0.002557  0.003428  0.002999 -0.001201 -0.001779  0.002335
  5C   1px       -0.045714  0.000761 -0.076030  0.077934 -0.007233 -0.018713
  5C   1py        0.020994 -0.033108  0.017537 -0.028122 -0.003577 -0.011596
  6C   1s         0.036505  0.017756  0.137069 -0.049798  0.002221 -0.001407
  6C   2s        -0.094974 -0.045353 -0.371892  0.134388 -0.005726  0.005940
  6C   1pz        0.003552 -0.004208 -0.005483 -0.002941 -0.001948 -0.006044
  6C   1px       -0.033740  0.057803  0.051140  0.035935  0.021957  0.099445
  6C   1py       -0.033184  0.011718  0.014936  0.047388  0.012458  0.049458
  7C   1s         0.083241 -0.047086  0.014083 -0.076772 -0.019783 -0.081049
  7C   2s        -0.219734  0.127292 -0.038388  0.210710  0.056491  0.232516
  7C   1pz       -0.002076 -0.004848 -0.009880  0.013896  0.002660  0.014600
  7C   1px       -0.018094  0.079348 -0.003326 -0.084637  0.003373  0.034579
  7C   1py       -0.003043  0.009952  0.130313  0.007431  0.004785 -0.007603
  8C   1s         0.038333  0.014617 -0.118353 -0.085966 -0.007473 -0.001787
  8C   2s        -0.100023 -0.036866  0.321524  0.233207  0.021566  0.007568
  8C   1pz        0.000075 -0.004212  0.003910  0.005443 -0.000343  0.001696
  8C   1px       -0.039029  0.060949 -0.067084  0.018521  0.019721  0.083723
  8C   1py        0.026914 -0.001623  0.019013 -0.036835 -0.007221 -0.031749
  9C   1s        -0.023263  0.061427 -0.129809  0.003380  0.012212  0.052200
  9C   2s         0.060965 -0.160507  0.351561 -0.010987 -0.034022 -0.145483
  9C   1pz        0.005361 -0.000726 -0.004084 -0.006538 -0.004941  0.001042
  9C   1px       -0.041188 -0.002849  0.050129  0.089715  0.003459 -0.021671
  9C   1py       -0.028163  0.033367  0.016452  0.048204  0.004563  0.011021
 10C   1s         0.082202 -0.121432 -0.004316  0.069524 -0.002866 -0.025691
 10C   2s        -0.225535  0.336743  0.011976 -0.196797  0.009009  0.078698
 10C   1pz        0.006429 -0.017915 -0.008769  0.036245  0.013341  0.065246
 10C   1px        0.024988 -0.003909  0.009650 -0.065395 -0.018640 -0.078111
 10C   1py       -0.001707  0.010479  0.024996 -0.024839 -0.008379 -0.046250
 11C   1s         0.049920 -0.093295 -0.020906  0.107572  0.023006  0.104153
 11C   2s        -0.134219  0.254686  0.058561 -0.302381 -0.066844 -0.303781
 11C   1pz       -0.021996  0.034412  0.003434 -0.019561  0.003581  0.022049
 11C   1px        0.012850 -0.015208 -0.003635 -0.002549 -0.004503 -0.019962
 11C   1py        0.014528 -0.023019  0.002129  0.014080 -0.002127 -0.015277
 12C   1s         0.011129 -0.020929 -0.001808  0.017752 -0.001054 -0.009622
 12C   2s        -0.030947  0.059924  0.005720 -0.053391  0.003012  0.028533
 12C   1pz        0.043365 -0.066747 -0.006436  0.043372 -0.001388 -0.014851
 12C   1px        0.024047 -0.041564 -0.004885  0.030047 -0.001605 -0.013226
 12C   1py        0.017137 -0.028827  0.001757  0.020767 -0.001778 -0.015239
 13O   1s        -0.017533  0.019639  0.000713 -0.002882  0.002691  0.014105
 13O   2s         0.068431 -0.077084 -0.002623  0.010593 -0.011253 -0.059039
 13O   1pz       -0.000265 -0.004337 -0.001053  0.006593 -0.001116 -0.007547
 13O   1px        0.001467  0.001212 -0.000526 -0.008065 -0.000587  0.000005
 13O   1py        0.000034 -0.000658  0.002128  0.000227 -0.000341 -0.002443
 14O   1s        -0.011800  0.021132  0.002377 -0.018710 -0.000932 -0.001255
 14O   2s         0.043237 -0.078814 -0.009171  0.072188  0.003866  0.005832
 14O   1pz        0.007459 -0.013166 -0.001888  0.012266  0.000898  0.002182
 14O   1px       -0.006113  0.009417  0.000700 -0.005997 -0.000555 -0.002404
 14O   1py       -0.001114  0.001497  0.000914 -0.000710 -0.000565 -0.003666
 15H   1s         0.037287  0.041835 -0.003565  0.044514 -0.145255 -0.020508
 16H   1s         0.040226  0.042002 -0.001620  0.039594 -0.141312 -0.008950
 17H   1s         0.040738  0.036594  0.001130  0.032046 -0.153828 -0.001574
 18H   1s         0.068239  0.058342 -0.009120  0.028917 -0.001624  0.001573
 19H   1s         0.039335  0.045440 -0.006394  0.047536  0.102573 -0.087979
 20H   1s         0.036695  0.044521 -0.007066  0.051580  0.096612 -0.100666
 21H   1s         0.037913  0.043371 -0.006707  0.044177  0.118957 -0.086239
 22H   1s         0.063386  0.021419  0.014464 -0.047840  0.039467  0.105403
 23H   1s         0.062430  0.020357  0.000048 -0.052317  0.060522  0.103117
 24H   1s         0.018498 -0.032654 -0.085352 -0.036985 -0.010400 -0.050507
 25H   1s        -0.022540 -0.003494 -0.098908  0.030820 -0.000976  0.008525
 26H   1s        -0.024370  0.000266  0.087486  0.054266  0.006553  0.000945
 27H   1s         0.016788 -0.032761  0.093676 -0.007363 -0.010652 -0.034347
 28H   1s        -0.049778  0.078621 -0.007564 -0.052512  0.002372  0.026552
 29H   1s        -0.029832  0.057311  0.019100 -0.071488 -0.018394 -0.087939
 30H   1s        -0.028706  0.056527  0.013554 -0.073882 -0.019149 -0.088953
 31H   1s        -0.026606  0.055552  0.013918 -0.078817 -0.020674 -0.094820
 32H   1s        -0.000016 -0.006267 -0.001834  0.016823  0.001996  0.007028
                     24        25        26        27        28        29   
                  -0.52973  -0.50121  -0.47802  -0.45837  -0.43653  -0.40507
                   2.00000   2.00000   2.00000   2.00000   2.00000   2.00000
                  --------  --------  --------  --------  --------  --------
  0C   1s         0.023122  0.000227  0.039215 -0.057974  0.000797  0.003390
  0C   2s        -0.068536 -0.000412 -0.121147  0.182192 -0.002302 -0.011567
  0C   1pz       -0.020630 -0.005586 -0.049469  0.070418 -0.005135  0.019761
  0C   1px        0.003922  0.000355 -0.003116  0.001040 -0.002877  0.023435
  0C   1py       -0.011726  0.013194 -0.060467  0.139219 -0.000465 -0.037189
  1C   1s        -0.026271  0.011763 -0.077343  0.125489 -0.002396 -0.001112
  1C   2s         0.079729 -0.036419  0.243666 -0.402615  0.008029  0.003638
  1C   1pz       -0.056992 -0.011972 -0.030133 -0.055900 -0.005757  0.068804
  1C   1px        0.037627 -0.016182  0.039137 -0.070303 -0.003909  0.045167
  1C   1py       -0.003128  0.025004 -0.045406  0.118568  0.008529 -0.061338
  2C   1s         0.047162 -0.006148  0.048939 -0.048076  0.001676 -0.007248
  2C   2s        -0.140461  0.018801 -0.151491  0.150950 -0.005259  0.023243
  2C   1pz       -0.017495 -0.004751 -0.014140 -0.024346 -0.003127  0.047359
  2C   1px        0.032721 -0.010253  0.091961 -0.140484  0.004383 -0.018146
  2C   1py        0.003854  0.005427  0.001516  0.019923  0.004483 -0.040885
  3C   1s        -0.064927 -0.017853 -0.007675 -0.069344 -0.004746  0.025914
  3C   2s         0.194302  0.054669  0.022392  0.218200  0.016460 -0.087614
  3C   1pz        0.006466 -0.014972  0.068222 -0.148407  0.001255  0.009877
  3C   1px       -0.051482 -0.021517 -0.092012 -0.038394 -0.011916  0.146100
  3C   1py       -0.020546  0.069994 -0.034743  0.059718  0.013369 -0.022041
  4C   1s         0.057252  0.011446  0.088790  0.038446 -0.010046 -0.029549
  4C   2s        -0.166147 -0.034021 -0.266348 -0.115472  0.029155  0.101090
  4C   1pz        0.007627 -0.015119  0.012487 -0.028543 -0.006147  0.012085
  4C   1px       -0.064100 -0.036506 -0.003364 -0.108262  0.030446 -0.121258
  4C   1py       -0.049614  0.217478  0.007411 -0.023150  0.030758 -0.024086
  5C   1s         0.005007  0.099339 -0.036392 -0.022958  0.025824 -0.003655
  5C   2s        -0.015968 -0.293672  0.110849  0.072940 -0.084632  0.020443
  5C   1pz       -0.000337 -0.009616  0.007007 -0.009154 -0.011966  0.011775
  5C   1px        0.051259  0.142650  0.111775  0.046552  0.046755 -0.141273
  5C   1py       -0.039645  0.008034 -0.139898 -0.114653  0.087198 -0.125355
  6C   1s        -0.034100 -0.104349 -0.046610 -0.023028 -0.015340  0.005601
  6C   2s         0.099737  0.309457  0.142017  0.073491  0.045510 -0.009604
  6C   1pz       -0.002676 -0.007949  0.014814  0.005411 -0.013967 -0.024429
  6C   1px       -0.017237  0.131397 -0.070404 -0.036030 -0.015579  0.155993
  6C   1py        0.009906  0.001206 -0.159699 -0.108019  0.084256 -0.109000
  7C   1s        -0.017803  0.001840  0.088146  0.031509 -0.017482 -0.033745
  7C   2s         0.050409 -0.006784 -0.266696 -0.095596  0.050033  0.115231
  7C   1pz       -0.015752  0.004875  0.003045 -0.004074 -0.007456 -0.073245
  7C   1px       -0.128673 -0.008962  0.023129  0.012974 -0.116548  0.194741
  7C   1py        0.038789 -0.223017 -0.017543  0.040213 -0.005974 -0.009552
  8C   1s        -0.062844  0.083619 -0.039331 -0.040975  0.004866  0.005696
  8C   2s         0.182236 -0.247936  0.119907  0.129110 -0.018841 -0.009775
  8C   1pz       -0.007103  0.003422 -0.001099 -0.009069 -0.006837 -0.041463
  8C   1px        0.054077 -0.130648 -0.131267  0.013778  0.015587  0.096970
  8C   1py       -0.008625 -0.015132  0.145832  0.102576 -0.098044  0.141576
  9C   1s         0.051554 -0.091102 -0.053539  0.010532  0.015889 -0.009819
  9C   2s        -0.150168  0.268862  0.162538 -0.029980 -0.053043  0.040253
  9C   1pz       -0.008176  0.004349 -0.014033 -0.015703  0.000616 -0.006660
  9C   1px        0.079426 -0.113598  0.086291  0.027027  0.009150 -0.133812
  9C   1py        0.045455  0.009866  0.162453  0.107985 -0.088018  0.114068
 10C   1s         0.107866  0.020036 -0.030945 -0.000872  0.041802  0.005820
 10C   2s        -0.332747 -0.064424  0.098827  0.002774 -0.131105 -0.021803
 10C   1pz       -0.119014 -0.043854  0.057939  0.024261  0.074265 -0.110983
 10C   1px       -0.014751  0.010324  0.110925  0.028621  0.023564 -0.220458
 10C   1py        0.071196 -0.058281 -0.007661  0.023630  0.087114 -0.059203
 11C   1s        -0.114537 -0.032507  0.017886  0.004545 -0.019955 -0.002391
 11C   2s         0.343221  0.099143 -0.055954 -0.014391  0.064726  0.007897
 11C   1pz       -0.081299 -0.037534  0.040743  0.013519 -0.031164 -0.080108
 11C   1px        0.015632  0.024544  0.019663 -0.000245  0.019331 -0.118687
 11C   1py        0.056502 -0.001916 -0.016799  0.008793  0.062495 -0.008399
 12C   1s         0.063667  0.026022 -0.055747 -0.024617 -0.119945  0.024399
 12C   2s        -0.201472 -0.085240  0.186442  0.084568  0.425642 -0.074069
 12C   1pz        0.087103  0.033951 -0.034045 -0.000237  0.175652  0.245237
 12C   1px        0.075995  0.038152 -0.055606 -0.027894 -0.135603 -0.002511
 12C   1py        0.075626  0.008386 -0.045822 -0.007209  0.002321  0.070874
 13O   1s        -0.030305 -0.013407  0.014164  0.006568  0.027657 -0.013607
 13O   2s         0.127148  0.057051 -0.060243 -0.028381 -0.122694  0.059042
 13O   1pz        0.042616  0.023399 -0.044106 -0.024542 -0.152938 -0.008550
 13O   1px       -0.047034 -0.019058  0.087022  0.052502  0.440282  0.214958
 13O   1py        0.001290 -0.008583  0.014676  0.014497  0.121220  0.078293
 14O   1s        -0.029957 -0.011587  0.031924  0.013923  0.071818 -0.010322
 14O   2s         0.120715  0.047517 -0.134458 -0.059487 -0.312478  0.042930
 14O   1pz        0.016411  0.007114 -0.012086 -0.000887  0.052796  0.100840
 14O   1px        0.010179  0.008568 -0.021638 -0.013874 -0.095454 -0.002138
 14O   1py        0.016658  0.002029 -0.016225 -0.004412 -0.017568  0.026780
 15H   1s        -0.030370 -0.003919 -0.057711  0.079855 -0.003313  0.011698
 16H   1s        -0.023818  0.008580 -0.060462  0.123814  0.000520 -0.037827
 17H   1s        -0.023258  0.004256 -0.049537  0.074048 -0.004209  0.011230
 18H   1s         0.024774 -0.035033  0.105147 -0.219253 -0.007301  0.068891
 19H   1s        -0.045381  0.012903 -0.072927  0.111400 -0.000021 -0.020433
 20H   1s        -0.055790  0.004587 -0.073564  0.062552 -0.005144  0.047676
 21H   1s        -0.040146  0.006093 -0.055373  0.071253 -0.003425  0.010275
 22H   1s         0.056576  0.061754  0.002945  0.144488  0.012813 -0.083951
 23H   1s         0.070910 -0.005185  0.014383  0.112337 -0.001148 -0.052176
 24H   1s         0.004634 -0.138585  0.086916  0.071407 -0.092076  0.119440
 25H   1s         0.020247  0.147173  0.103603  0.065497 -0.032366  0.109909
 26H   1s         0.070828 -0.123092  0.086364  0.105984 -0.051777  0.106793
 27H   1s        -0.051725  0.133604  0.104285  0.035647 -0.065526  0.121486
 28H   1s        -0.129284  0.021190  0.060607 -0.004441 -0.098931 -0.010514
 29H   1s         0.129116  0.017045 -0.029255  0.005380  0.052017  0.036582
 30H   1s         0.123796  0.046709 -0.036972 -0.014281  0.018820  0.072076
 31H   1s         0.112007  0.042677 -0.008262 -0.004730  0.029801 -0.083909
 32H   1s         0.040125  0.015955 -0.073543 -0.041733 -0.317602 -0.156860
                     30        31        32        33        34        35   
                  -0.38920  -0.37459  -0.35993  -0.34762  -0.34186  -0.33791
                   2.00000   2.00000   2.00000   2.00000   2.00000   2.00000
[...]
  0-1A  -> 17-1A    7.884135   63589.8   157.3   0.034640413   0.17934  -0.28623   0.28705   0.12252
  0-1A  -> 18-1A    7.901011   63726.0   156.9   0.011280857   0.05828   0.07008   0.22429   0.05533
  0-1A  -> 19-1A    7.917161   63856.2   156.6   0.046778290   0.24117   0.13646   0.43778  -0.17576
  0-1A  -> 20-1A    7.994088   64476.7   155.1   0.020997437   0.10721  -0.23562  -0.22693   0.01419
  0-1A  -> 21-1A    8.039883   64846.0   154.2   0.001739434   0.00883  -0.06437  -0.00373  -0.06836
  0-1A  -> 22-1A    8.072151   65106.3   153.6   0.024832022   0.12556  -0.33980  -0.01273   0.09969
  0-1A  -> 23-1A    8.123038   65516.7   152.6   0.067314153   0.33824  -0.53889  -0.14250   0.16594
  0-1A  -> 24-1A    8.174427   65931.2   151.7   0.005066305   0.02530   0.06684   0.14383  -0.01193
  0-1A  -> 25-1A    8.178360   65962.9   151.6   0.082247390   0.41049   0.61025   0.12954  -0.14593
  0-1A  -> 26-1A    8.226585   66351.9   150.7   0.007585586   0.03764  -0.17923  -0.06975   0.02547
  0-1A  -> 27-1A    8.412768   67853.6   147.4   0.005389508   0.02615   0.04585  -0.15436   0.01484
  0-1A  -> 28-1A    8.440175   68074.6   146.9   0.008110885   0.03922   0.18143   0.07805   0.01470
  0-1A  -> 29-1A    8.472305   68333.8   146.3   0.251417179   1.21125   1.09496   0.10873  -0.02242
  0-1A  -> 30-1A    8.504921   68596.8   145.8   0.034494379   0.16555  -0.30905  -0.26436  -0.01218

----------------------------------------------------------------------------------------------------
                     ABSORPTION SPECTRUM VIA TRANSITION VELOCITY DIPOLE MOMENTS    
----------------------------------------------------------------------------------------------------
     Transition      Energy     Energy  Wavelength fosc(P2)      P2        PX        PY        PZ   
                      (eV)      (cm-1)    (nm)                 (au**2)    (au)      (au)      (au)  
----------------------------------------------------------------------------------------------------
  0-1A  ->  1-1A    3.966814   31994.5   312.6   0.002025336   0.00044   0.01956   0.00540  -0.00559
  0-1A  ->  2-1A    4.029552   32500.5   307.7   0.001815686   0.00040  -0.01691   0.01083  -0.00047
  0-1A  ->  3-1A    4.765229   38434.2   260.2   0.000074169   0.00002   0.00372  -0.00162   0.00172
  0-1A  ->  4-1A    4.871497   39291.3   254.5   0.000172687   0.00005   0.00011  -0.00624  -0.00272
  0-1A  ->  5-1A    5.025514   40533.5   246.7   0.000116178   0.00003   0.00342  -0.00164  -0.00422
  0-1A  ->  6-1A    5.807907   46843.9   213.5   0.000093050   0.00003   0.00066   0.00540   0.00038
  0-1A  ->  7-1A    6.320635   50979.4   196.2   0.000536830   0.00019  -0.00095  -0.01226   0.00600
  0-1A  ->  8-1A    6.518526   52575.5   190.2   0.000011922   0.00000  -0.00100  -0.00018   0.00180
  0-1A  ->  9-1A    6.989713   56375.8   177.4   0.051639601   0.01990  -0.13153  -0.01872   0.04740
  0-1A  -> 10-1A    7.035598   56745.9   176.2   0.056474878   0.02190   0.14177   0.02675  -0.03298
  0-1A  -> 11-1A    7.232712   58335.8   171.4   0.000467162   0.00019   0.01314  -0.00135  -0.00343
  0-1A  -> 12-1A    7.488324   60397.4   165.6   0.005322826   0.00220   0.04593   0.00756  -0.00551
  0-1A  -> 13-1A    7.499971   60491.4   165.3   0.002235085   0.00092  -0.00098  -0.00015   0.03038
  0-1A  -> 14-1A    7.623312   61486.2   162.6   0.000600301   0.00025  -0.01448  -0.00452   0.00472
  0-1A  -> 15-1A    7.666549   61834.9   161.7   0.000418610   0.00018   0.00818   0.00073  -0.01046
  0-1A  -> 16-1A    7.733251   62372.9   160.3   0.000186453   0.00008  -0.00767   0.00106  -0.00443
  0-1A  -> 17-1A    7.884135   63589.8   157.3   0.001168720   0.00051   0.01879  -0.00549  -0.01116
  0-1A  -> 18-1A    7.901011   63726.0   156.9   0.001632790   0.00071  -0.02004  -0.00526  -0.01679
  0-1A  -> 19-1A    7.917161   63856.2   156.6   0.000961335   0.00042   0.00989   0.00341   0.01761
  0-1A  -> 20-1A    7.994088   64476.7   155.1   0.003137423   0.00138   0.03422   0.00673  -0.01290
  0-1A  -> 21-1A    8.039883   64846.0   154.2   0.007249644   0.00321  -0.03722  -0.01275   0.04081
  0-1A  -> 22-1A    8.072151   65106.3   153.6   0.015738108   0.00700   0.01744  -0.07367   0.03565
  0-1A  -> 23-1A    8.123038   65516.7   152.6   0.001948036   0.00087   0.02929  -0.00132   0.00354
  0-1A  -> 24-1A    8.174427   65931.2   151.7   0.001750166   0.00079  -0.02568  -0.00808   0.00798
  0-1A  -> 25-1A    8.178360   65962.9   151.6   0.018431986   0.00831   0.05508  -0.01537  -0.07099
  0-1A  -> 26-1A    8.226585   66351.9   150.7   0.001030748   0.00047   0.00206   0.02064   0.00610
  0-1A  -> 27-1A    8.412768   67853.6   147.4   0.000271451   0.00013   0.00016   0.00031  -0.01121
  0-1A  -> 28-1A    8.440175   68074.6   146.9   0.000784001   0.00036  -0.01713  -0.00830   0.00154
  0-1A  -> 29-1A    8.472305   68333.8   146.3   0.038081308   0.01779  -0.13038  -0.02686  -0.00806
  0-1A  -> 30-1A    8.504921   68596.8   145.8   0.001520598   0.00071   0.00987   0.01432   0.02026

------------------------------------------------------------------------------------------
                     CD SPECTRUM VIA TRANSITION ELECTRIC DIPOLE MOMENTS    
------------------------------------------------------------------------------------------
     Transition      Energy     Energy  Wavelength    R        MX        MY        MZ   
                      (eV)      (cm-1)    (nm)   (1e40*cgs)   (au)      (au)      (au)  
------------------------------------------------------------------------------------------
  0-1A  ->  1-1A    3.966814   31994.5   312.6   18.29923   0.04272  -0.08156   0.05430
  0-1A  ->  2-1A    4.029552   32500.5   307.7  -17.37645   0.00838   0.09991   0.04386
  0-1A  ->  3-1A    4.765229   38434.2   260.2   -2.39184  -0.17561  -0.06561   0.04921
  0-1A  ->  4-1A    4.871497   39291.3   254.5   -2.23956   0.42220   0.17644   0.02202
  0-1A  ->  5-1A    5.025514   40533.5   246.7    0.53419   0.00892   0.01457   0.00297
  0-1A  ->  6-1A    5.807907   46843.9   213.5    0.00222  -0.01085  -0.01098  -0.03005
  0-1A  ->  7-1A    6.320635   50979.4   196.2   -2.06213   0.11222  -0.00450  -0.05080
  0-1A  ->  8-1A    6.518526   52575.5   190.2    0.02121  -0.00588   0.00021   0.00410
  0-1A  ->  9-1A    6.989713   56375.8   177.4  -17.99570   0.03878  -0.02978  -0.00123
  0-1A  -> 10-1A    7.035598   56745.9   176.2   18.73601   0.09789  -0.37451   0.08967
  0-1A  -> 11-1A    7.232712   58335.8   171.4    3.43399   0.03616   0.04827  -0.04046
  0-1A  -> 12-1A    7.488324   60397.4   165.6    1.64445   0.01135  -0.06153   0.02897
  0-1A  -> 13-1A    7.499971   60491.4   165.3    1.48669  -0.04299   0.06889   0.00615
  0-1A  -> 14-1A    7.623312   61486.2   162.6    0.91427  -0.04192   0.00667  -0.03160
  0-1A  -> 15-1A    7.666549   61834.9   161.7   -2.28367  -0.00534  -0.03124  -0.00675
  0-1A  -> 16-1A    7.733251   62372.9   160.3    1.96451   0.11438   0.06869  -0.02253
  0-1A  -> 17-1A    7.884135   63589.8   157.3   -5.24658   0.00047   0.05655  -0.04058
  0-1A  -> 18-1A    7.901011   63726.0   156.9   -4.36810  -0.03338   0.06689  -0.06141
  0-1A  -> 19-1A    7.917161   63856.2   156.6   21.28584   0.04776  -0.12684  -0.02197
  0-1A  -> 20-1A    7.994088   64476.7   155.1    3.18029   0.05971  -0.03062   0.02638
  0-1A  -> 21-1A    8.039883   64846.0   154.2   -0.95155  -0.00051   0.28424  -0.04456
  0-1A  -> 22-1A    8.072151   65106.3   153.6   73.30431   0.34964  -0.11487  -0.38261
  0-1A  -> 23-1A    8.123038   65516.7   152.6  -12.87173   0.00237  -0.18370   0.01449
  0-1A  -> 24-1A    8.174427   65931.2   151.7   -2.53478  -0.07034   0.06471  -0.06458
  0-1A  -> 25-1A    8.178360   65962.9   151.6  -45.71030   0.08757   0.22695  -0.09675
  0-1A  -> 26-1A    8.226585   66351.9   150.7   -6.67002  -0.04594  -0.01382   0.19435
  0-1A  -> 27-1A    8.412768   67853.6   147.4    6.93969  -0.00181   0.09095  -0.04028
  0-1A  -> 28-1A    8.440175   68074.6   146.9   -0.46270   0.00872  -0.00352  -0.02213
  0-1A  -> 29-1A    8.472305   68333.8   146.3   13.99264  -0.04713   0.18507  -0.08053
  0-1A  -> 30-1A    8.504921   68596.8   145.8  -16.04551  -0.02105  -0.10586   0.03737

------------------------------------------------------------------------------------------
                     CD SPECTRUM VIA TRANSITION VELOCITY DIPOLE MOMENTS    
------------------------------------------------------------------------------------------
     Transition      Energy     Energy  Wavelength    R        MX        MY        MZ   
                      (eV)      (cm-1)    (nm)   (1e40*cgs)   (au)      (au)      (au)  
------------------------------------------------------------------------------------------
  0-1A  ->  1-1A    3.966814   31994.5   312.6    0.29602   0.04272  -0.08156   0.05430
  0-1A  ->  2-1A    4.029552   32500.5   307.7    2.92739   0.00838   0.09991   0.04386
  0-1A  ->  3-1A    4.765229   38434.2   260.2   -1.24552  -0.17561  -0.06561   0.04921
  0-1A  ->  4-1A    4.871497   39291.3   254.5   -2.93265   0.42220   0.17644   0.02202
  0-1A  ->  5-1A    5.025514   40533.5   246.7   -0.01495   0.00892   0.01457   0.00297
  0-1A  ->  6-1A    5.807907   46843.9   213.5   -0.17200  -0.01085  -0.01098  -0.03005
  0-1A  ->  7-1A    6.320635   50979.4   196.2   -0.72195   0.11222  -0.00450  -0.05080
  0-1A  ->  8-1A    6.518526   52575.5   190.2    0.02604  -0.00588   0.00021   0.00410
  0-1A  ->  9-1A    6.989713   56375.8   177.4   -8.44584   0.03878  -0.02978  -0.00123
  0-1A  -> 10-1A    7.035598   56745.9   176.2    1.64629   0.09789  -0.37451   0.08967
  0-1A  -> 11-1A    7.232712   58335.8   171.4    0.97319   0.03616   0.04827  -0.04046
  0-1A  -> 12-1A    7.488324   60397.4   165.6   -0.17747   0.01135  -0.06153   0.02897
  0-1A  -> 13-1A    7.499971   60491.4   165.3    0.37394  -0.04299   0.06889   0.00615
  0-1A  -> 14-1A    7.623312   61486.2   162.6    0.71938  -0.04192   0.00667  -0.03160
  0-1A  -> 15-1A    7.666549   61834.9   161.7    0.00703  -0.00534  -0.03124  -0.00675
  0-1A  -> 16-1A    7.733251   62372.9   160.3   -1.16852   0.11438   0.06869  -0.02253
  0-1A  -> 17-1A    7.884135   63589.8   157.3    0.24636   0.00047   0.05655  -0.04058
  0-1A  -> 18-1A    7.901011   63726.0   156.9    2.18889  -0.03338   0.06689  -0.06141
  0-1A  -> 19-1A    7.917161   63856.2   156.6   -0.56146   0.04776  -0.12684  -0.02197
  0-1A  -> 20-1A    7.994088   64476.7   155.1    2.40202   0.05971  -0.03062   0.02638
  0-1A  -> 21-1A    8.039883   64846.0   154.2   -8.65203  -0.00051   0.28424  -0.04456
  0-1A  -> 22-1A    8.072151   65106.3   153.6    1.46523   0.34964  -0.11487  -0.38261
  0-1A  -> 23-1A    8.123038   65516.7   152.6    0.57280   0.00237  -0.18370   0.01449
  0-1A  -> 24-1A    8.174427   65931.2   151.7    1.20613  -0.07034   0.06471  -0.06458
  0-1A  -> 25-1A    8.178360   65962.9   151.6   12.86817   0.08757   0.22695  -0.09675
  0-1A  -> 26-1A    8.226585   66351.9   150.7    1.25543  -0.04594  -0.01382   0.19435
  0-1A  -> 27-1A    8.412768   67853.6   147.4    0.73142  -0.00181   0.09095  -0.04028
  0-1A  -> 28-1A    8.440175   68074.6   146.9   -0.23444   0.00872  -0.00352  -0.02213
  0-1A  -> 29-1A    8.472305   68333.8   146.3    2.76070  -0.04713   0.18507  -0.08053
  0-1A  -> 30-1A    8.504921   68596.8   145.8   -1.45845  -0.02105  -0.10586   0.03737

Total run time:       30.337 sec

           *** ORCA-CIS/TD-DFT FINISHED WITHOUT ERROR ***
-----------------------
CIS/TD-DFT TOTAL ENERGY
-----------------------

    E(SCF)  =   -647.699567506 Eh
    DE(CIS) =      0.145777723 Eh (Root  1)
    ----------------------------- ---------
    E(tot)  =   -647.553789783 Eh


Maximum memory used throughout the entire CIS-calculation: 82.0 MB
=> NOW LEAVING ORCA_CIS

-------------------------   --------------------
FINAL SINGLE POINT ENERGY      -647.553789782532
-------------------------   --------------------


------------------------------------------------------------------------------
                              ORCA PROPERTY CALCULATIONS
------------------------------------------------------------------------------

GBWName                                 ... Ibuprofen\Ibuprofen_PBE_STO-3G\Ibuprofen_PBE_STO-3G.orcainp.gbw
Number of atoms                         ...     33
Number of basis functions               ...     93
Max core memory                         ...   1024 MB

Electric properties:
Dipole moment                           ... YES
Quadrupole moment                       ...  NO
Static polarizability (Dipole/Dipole)   ...  NO
Static polarizability (Dipole/Quad.)    ...  NO
Static polarizability (Quad./Quad.)     ...  NO
Static polarizability (Velocity)        ...  NO

Atomic electric properties:
Dipole moment                           ...  NO
Quadrupole moment                       ...  NO
Static polarizability                   ...  NO

Choice of electric origin               ... Center of mass
Position of electric origin             ...    11.708685    -0.696005    -1.451214

General magnetic properties:
Magnetizability                         ...  NO

EPR properties:
g-Tensor (aka g-matrix)                 ...  NO
Zero-Field splitting spin-orbit         ...  NO
Zero-field splitting spin-spin          ...  NO
Hyperfine couplings                     ...  NO (   0 nuclei)
Quadrupole couplings                    ...  NO (   0 nuclei)
Contact density                         ...  NO (   0 nuclei)

NMR properties:
Chemical shifts                         ...  NO (   0 nuclei)
Spin-rotation constants                 ...  NO (   0 nuclei)
Spin-spin couplings                     ...  NO (   0 nuclei,    0 pairs)

Choice of magnetic origin               ... GIAO
Position of magnetic origin             ...     0.000000     0.000000     0.000000

Properties with geometric perturbations:
SCF Hessian                             ...  NO
IR spectrum                             ...  NO
VCD spectrum                            ...  NO
X-ray spectroscopy properties:
SCF XES/XAS/RIXS spectra                ...  NO


-------------
DIPOLE MOMENT
-------------

Method             : SCF
Type of density    : Electron Density
Multiplicity       :   1
Irrep              :   0
Energy             :  -647.6995675055176207 Eh
Relativity type    : 
Basis              : AO
                                X                 Y                 Z
Electronic contribution:     20.094242949       2.047774609      -0.091834814
Nuclear contribution   :    -21.489460358      -2.609939284      -0.389471995
                        -----------------------------------------
Total Dipole Moment    :     -1.395217409      -0.562164675      -0.481306809
                        -----------------------------------------
Magnitude (a.u.)       :      1.579340680
Magnitude (Debye)      :      4.014364981



--------------------
Rotational spectrum 
--------------------
 
Rotational constants in cm-1:             0.046436             0.008332             0.007827 
Rotational constants in MHz :          1392.107555           249.788132           234.640349 

Dipole components along the rotational axes: 
x,y,z [a.u.] :     1.403195    -0.704794     0.169192 
x,y,z [Debye]:     3.566638    -1.791445     0.430053 

 

Dipole moment calculation done in   0.0 sec 

Maximum memory used throughout the entire PROP-calculation: 7.2 MB

--------------------------------
SUGGESTED CITATIONS FOR THIS RUN
--------------------------------

Below you find a list of papers that are relevant to this ORCA run
We neither can nor want to force you to cite these papers, but we appreciate if you do
You receive ORCA, which is the product of decades of hard work by many enthusiastic individuals, for free
The only thing we kindly ask in return is that you cite our papers,
We deeply appreciate it, if you show your appreciation for ORCA by not just citing the generic ORCA reference.

Please note that relegating all ORCA citations to the supporting information does *not* help us.
SI sections are not indexed - citations you put there will not count into any citation statistics
But we need these citations in order to attract the funding resources that allow us to do what we are doing

Therefore, if you are a happy ORCA user, please consider citing a few of the papers listed below in the main body of your paper

In addition to the list printed below, the program has created the file Ibuprofen\Ibuprofen_PBE_STO-3G\Ibuprofen_PBE_STO-3G.orcainp.bibtex that contains the list in bibtex format
You can import this file easily into all common literature databanks and citation aid programs


List of essential papers. We consider these as the minimum necessary citations

  1. Neese,F.
     Software update: the ORCA program system, version 5.0
     WIRES Comput. Molec. Sci., 2022 12(1)e1606
     doi.org/10.1002/wcms.1606

List of papers to cite with high priority. The work reported in these papers was absolutely
necessary for this run to complete.
Our perspective: the developers of density functionals and basis sets usually get cited in chemistry papers
Good! But without the algorithms to do something with them, the functionals or basis sets would not do anything.
Hence, in our opinion, the algorithm design and method developments papers are equally worthy of getting cited

  1. Neese,F.; Olbrich,G.
     Efficient use of the resolution of the identity approximation in time-dependent density functional calculations with hybrid density functionals
     Chem. Phys. Lett., 2002 362 170-178
     doi.org/10.1016/s0009-2614(02)01053-9
  2. Neese,F.
     An improvement of the resolution of the identity approximation for the formation of the Coulomb matrix
     J. Comp. Chem., 2003 24(14)1740-1747
     doi.org/10.1002/jcc.10318
  3. Garcia-Rates,M.; Neese,F.
     Effect of the Solute Cavity on the Solvation Energy and its Derivatives within the Framework of the Gaussian Charge Scheme
     J. Comput. Chem., 2020 41 922-939
     doi.org/10.1002/jcc.26139
  4. Neese,F.
     The SHARK Integral Generation and Digestion System
     J. Comp. Chem., 2022  1-16
     doi.org/10.1002/jcc.26942

List of suggested additional citations. These are papers that are important in the 'surrounding' of 
of this run, or papers that preceded the highly important papers. If you like your results we are grateful for a citation.

  1. Neese,F.
     The ORCA program system
     WIRES Comput. Molec. Sci., 2012 2(1)73-78
     doi.org/10.1002/wcms.81
  2. Neese,F.
     Software update: the ORCA program system, version 4.0
     WIRES Comput. Molec. Sci., 2018 8(1)1-6
     doi.org/10.1002/wcms.1327
  3. Neese,F.; Wennmohs,F.; Becker,U.; Riplinger,C.
     The ORCA quantum chemistry program package
     J. Chem. Phys., 2020 152 Art. No. L224108
     doi.org/10.1063/5.0004608

List of optional additional citations

  1. Neese,F.
     Approximate second-order SCF convergence for spin unrestricted wavefunctions
     Chem. Phys. Lett., 2000 325(1-3)93-98
     doi.org/10.1016/s0009-2614(00)00662-x

Timings for individual modules:

Sum of individual times          ...       33.487 sec (=   0.558 min)
Startup calculation              ...        0.811 sec (=   0.014 min)   2.4 %
SCF iterations                   ...        2.146 sec (=   0.036 min)   6.4 %
Property integrals               ...        0.070 sec (=   0.001 min)   0.2 %
Property calculations            ...        0.076 sec (=   0.001 min)   0.2 %
CIS module                       ...       30.384 sec (=   0.506 min)  90.7 %
                             ****ORCA TERMINATED NORMALLY****
TOTAL RUN TIME: 0 days 0 hours 0 minutes 33 seconds 632 msec
