
                                 *****************
                                 * O   R   C   A *
                                 *****************

                                            #,                                       
                                            ###                                      
                                            ####                                     
                                            #####                                    
                                            ######                                   
                                           ########,                                 
                                     ,,################,,,,,                         
                               ,,#################################,,                 
                          ,,##########################################,,             
                       ,#########################################, ''#####,          
                    ,#############################################,,   '####,        
                  ,##################################################,,,,####,       
                ,###########''''           ''''###############################       
              ,#####''   ,,,,##########,,,,          '''####'''          '####       
            ,##' ,,,,###########################,,,                        '##       
           ' ,,###''''                  '''############,,,                           
         ,,##''                                '''############,,,,        ,,,,,,###''
      ,#''                                            '''#######################'''  
     '                                                          ''''####''''         
             ,#######,   #######,   ,#######,      ##                                
            ,#'     '#,  ##    ##  ,#'     '#,    #''#        ,####,   ,####,        
            ##       ##  ##   ,#'  ##            #'  '#       #'       #'  '#        
            ##       ##  #######   ##           ,######,      #####,   #    #        
            '#,     ,#'  ##    ##  '#,     ,#' ,#      #,     #,   #   #,  ,#        
             '#######'   ##     ##  '#######'  #'      '#     '####' # '####'        



                #########################################################
                #                        -***-                          #
                #          Department of theory and spectroscopy        #
                #                                                       #
                #                      Frank Neese                      #
                #                                                       #
                #     Directorship, Architecture, Infrastructure        #
                #                    SHARK, DRIVERS                     #
                #        Core code/Algorithms in most modules           #
                #                                                       #
                #        Max Planck Institute fuer Kohlenforschung      #
                #                Kaiser Wilhelm Platz 1                 #
                #                 D-45470 Muelheim/Ruhr                 #
                #                      Germany                          #
                #                                                       #
                #                  All rights reserved                  #
                #                        -***-                          #
                #########################################################


                         Program Version 6.0.0  -   RELEASE   -


 With contributions from (in alphabetic order):
   Daniel Aravena         : Magnetic Suceptibility
   Michael Atanasov       : Ab Initio Ligand Field Theory (pilot matlab implementation)
   Alexander A. Auer      : GIAO ZORA, VPT2 properties, NMR spectrum
   Ute Becker             : All parallelization in ORCA, NUMFREQ, NUMCALC
   Giovanni Bistoni       : ED, misc. LED, open-shell LED, HFLD
   Martin Brehm           : Molecular dynamics
   Dmytro Bykov           : pre 5.0 version of the SCF Hessian
   Marcos Casanova-Páez   : Triplet and SCS-CIS(D). UHF-(DLPNO)-IP/EA/STEOM-CCSD. UHF-CVS-IP/STEOM-CCSD
   Vijay G. Chilkuri      : MRCI spin determinant printing, contributions to CSF-ICE
   Pauline Colinet        : FMM embedding
   Dipayan Datta          : RHF DLPNO-CCSD density
   Achintya Kumar Dutta   : EOM-CC, STEOM-CC
   Nicolas Foglia         : Exact transition moments, OPA infrastructure, MCD improvements
   Dmitry Ganyushin       : Spin-Orbit,Spin-Spin,Magnetic field MRCI
   Miquel Garcia          : C-PCM and meta-GGA Hessian, CCSD/C-PCM, Gaussian charge scheme
   Tiago L. C. Gouveia    : GS-ROHF, GS-ROCIS
   Yang Guo               : DLPNO-NEVPT2, F12-NEVPT2, CIM, IAO-localization
   Andreas Hansen         : Spin unrestricted coupled pair/coupled cluster methods
   Ingolf Harden          : AUTO-CI MPn and infrastructure 
   Benjamin Helmich-Paris : MC-RPA, TRAH-(SCF,CASSCF), AVAS, COSX integrals, SCF dyn. polar.
   Lee Huntington         : MR-EOM, pCC
   Robert Izsak           : Overlap fitted RIJCOSX, COSX-SCS-MP3, EOM
   Riya Kayal             : Wick's Theorem for AUTO-CI, AUTO-CI UHF-CCSDT
   Emily Kempfer          : AUTO-CI, RHF CISDT and CCSDT
   Christian Kollmar      : KDIIS, OOCD, Brueckner-CCSD(T), CCSD density, CASPT2, CASPT2-K, improved NEVPT2
   Axel Koslowski         : Symmetry handling
   Simone Kossmann        : Meta GGA functionals, TD-DFT gradient, OOMP2, (MP2 Hessian; deprecated post 5.0)
   Lucas Lang             : DCDCAS
   Marvin Lechner         : AUTO-CI (C++ implementation), FIC-MRCC
   Spencer Leger          : CASSCF response
   Dagmar Lenk            : GEPOL surface, SMD, ORCA-2-JSON
   Dimitrios Liakos       : Extrapolation schemes; Compound Job, initial MDCI parallelization
   Dimitrios Manganas     : Further ROCIS development; embedding schemes. LFT, Crystal Embedding
   Dimitrios Pantazis     : SARC Basis sets
   Anastasios Papadopoulos: AUTO-CI, single reference methods and gradients
   Taras Petrenko         : pre 6.0 DFT Hessian and TD-DFT gradient, (ASA, deprecated), ECA, 1-Electron XAS/XES, NRVS
   Peter Pinski           : DLPNO-MP2, DLPNO-MP2 Gradient
   Christoph Reimann      : Effective Core Potentials
   Marius Retegan         : Local ZFS, SOC
   Christoph Riplinger    : Optimizer, TS searches, QM/MM, DLPNO-CCSD(T), (RO)-DLPNO pert. Triples
   Michael Roemelt        : Original ROCIS implementation
   Masaaki Saitow         : Open-shell DLPNO-CCSD energy and density
   Barbara Sandhoefer     : DKH picture change effects
   Kantharuban Sivalingam : CASSCF convergence/infrastructure, NEVPT2 and variants, FIC-MRCI
   Bernardo de Souza      : ESD, SOC TD-DFT
   Georgi Stoychev        : AutoAux, RI-MP2 NMR, DLPNO-MP2 response, X2C
   Van Anh Tran           : RI-MP2 g-tensors
   Willem Van den Heuvel  : Paramagnetic NMR
   Zikuan Wang            : NOTCH, Electric field optimization 
   Frank Wennmohs         : Technical directorship and infrastructure
   Hang Xu                : AUTO-CI-Response properties 


 We gratefully acknowledge several colleagues who have allowed us to
 interface, adapt or use parts of their codes:
   Stefan Grimme, W. Hujo, H. Kruse, P. Pracht,  : VdW corrections, initial TS optimization,
                  C. Bannwarth, S. Ehlert,         DFT functionals, gCP, sTDA/sTD-DF
                  L. Wittmann, M. Mueller
   Ed Valeev, F. Pavosevic, A. Kumar             : LibInt (2-el integral package), F12 methods
   Garnet Chan, S. Sharma, J. Yang, R. Olivares  : DMRG
   Ulf Ekstrom                                   : XCFun DFT Library
   Mihaly Kallay                                 : mrcc  (arbitrary order and MRCC methods)
   Frank Weinhold                                : gennbo (NPA and NBO analysis)
   Simon Mueller                                 : openCOSMO-RS
   Christopher J. Cramer and Donald G. Truhlar   : smd solvation model
   Lars Goerigk                                  : TD-DFT with DH, B97 family of functionals
   V. Asgeirsson, H. Jonsson                     : NEB implementation
   FAccTs GmbH                                   : IRC, NEB, NEB-TS, DLPNO-Multilevel, CI-OPT
                                                   MM, QMMM, 2- and 3-layer-ONIOM, Crystal-QMMM,
                                                   LR-CPCM, SF, NACMEs, symmetry and pop. for TD-DFT,
                                                   nearIR, NL-DFT gradient (VV10), updates on ESD,
                                                   ML-optimized integration grids, MBIS, APM,
                                                   GOAT, DOCKER, SOLVATOR, interface openCOSMO-RS
   S Lehtola, MJT Oliveira, MAL Marques          : LibXC Library
   Liviu Ungur et al                             : ANISO software


 Your calculation uses the libint2 library for the computation of 2-el integrals
 For citations please refer to: http://libint.valeyev.net

 Your ORCA version has been built with support for libXC version: 6.2.2
 For citations please refer to: https://libxc.gitlab.io

 This ORCA versions uses:
   CBLAS   interface :  Fast vector & matrix operations
   LAPACKE interface :  Fast linear algebra routines
   Shared memory     :  Shared parallel matrices


Warning: RI is on but no J-basis has been assigned. Assigning Def2/J (nothing to worry about!)
================================================================================

----- Orbital basis set information -----
Your calculation utilizes the basis: 6-311+G**
   H, Li - Ne  : R. Krishnan, J. S. Binkley, R. Seeger and J. A. Pople, J. Chem. Phys. 72, 650 (1980).
   Na - Ar     : A. D. McLean and G. S. Chandler J. Chem. Phys. 72, 5639, (1980).
   K  - Ca     : J.-P. Blaudeau, M. P. McGrath, L. A. Curtiss and L. Radom, J. Chem. Phys. 107, 5016 (1997).
   Ga - Kr     : L. A. Curtiss, M. P. McGrath, J.-P. Blandeau, N. E. Davis, R. C. Binning and L. Radom, J. Chem. Phys. 103, 6104 (1995).
   Pol./Diff.
   H, Li - Cl  : T. Clark, J. Chandrasekhar and P. v. R. Schleyer, J. Comp. Chem. 4, 294 (1983).
   H - Ne      : M. J. Frisch, J. A. Pople and J. S. Binkley, J. Chem. Phys. 80, 3265 (1984).

----- AuxJ basis set information -----
Your calculation utilizes the auxiliary basis: def2/J
   F. Weigend, Phys. Chem. Chem. Phys. 8, 1057 (2006).

================================================================================
                                        WARNINGS
                       Please study these warnings very carefully!
================================================================================


WARNING: Geometry Optimization
  ===> : Switching off AutoStart
         For restart on a previous wavefunction, please use MOREAD

================================================================================
                                       INPUT FILE
================================================================================
NAME = Ibuprofen\Ibuprofen_PBE_6-311+G\Ibuprofen_PBE_6-311+G.orcainp
|  1> # ORCA input file
|  2> # 
|  3> !PBE 6-311+G** Opt CPCM(WATER)
|  4> * xyz 0 1
|  5>    C        2.95021        -0.38900         1.26274
|  6>    C        2.52045        -1.27848         0.09338
|  7>    C        0.99553        -1.40741         0.07675
|  8>    C        3.03305        -0.73504        -1.25720
|  9>    C        4.54216        -0.63179        -1.32375
| 10>    C        5.34421        -1.77303        -1.21037
| 11>    C        6.73846        -1.66838        -1.22843
| 12>    C        7.36134        -0.42186        -1.38715
| 13>    C        6.55228         0.71875        -1.50569
| 14>    C        5.15995         0.61450        -1.47446
| 15>    C        8.87998        -0.34092        -1.48484
| 16>    C        9.28189         0.24772        -2.84195
| 17>    C        9.61173         0.40524        -0.37163
| 18>    O        8.87745         0.76600         0.70549
| 19>    O       10.81195         0.64384        -0.41318
| 20>    H        2.59304        -0.80141         2.21203
| 21>    H        2.55000         0.62512         1.15790
| 22>    H        4.04024        -0.31777         1.33342
| 23>    H        2.93334        -2.27988         0.25826
| 24>    H        0.51345        -0.43617        -0.07745
| 25>    H        0.63424        -1.81602         1.02656
| 26>    H        0.66784        -2.08146        -0.72144
| 27>    H        2.58341         0.24756        -1.45114
| 28>    H        2.69896        -1.38702        -2.07513
| 29>    H        4.88886        -2.75489        -1.10326
| 30>    H        7.32748        -2.57887        -1.13792
| 31>    H        6.99599         1.70432        -1.63567
| 32>    H        4.56054         1.51848        -1.56984
| 33>    H        9.27510        -1.36482        -1.43749
| 34>    H        8.93076         1.27903        -2.95691
| 35>    H        8.86386        -0.34431        -3.66356
| 36>    H       10.37078         0.26519        -2.96132
| 37>    H        7.93807         0.51129         0.66734
| 38> *
| 39> 
| 40>                          ****END OF INPUT****
================================================================================

                       *****************************
                       * Geometry Optimization Run *
                       *****************************

Geometry optimization settings:
Update method            Update   .... BFGS
Choice of coordinates    CoordSys .... (2022) Redundant Internals
Initial Hessian          InHess   .... Almloef's Model
Max. no of cycles        MaxIter  .... 99

Convergence Tolerances:
Energy Change            TolE     ....  5.0000e-06 Eh
Max. Gradient            TolMAXG  ....  3.0000e-04 Eh/bohr
RMS Gradient             TolRMSG  ....  1.0000e-04 Eh/bohr
Max. Displacement        TolMAXD  ....  4.0000e-03 bohr
RMS Displacement         TolRMSD  ....  2.0000e-03 bohr
Strict Convergence                .... False

------------------------------------------------------------------------------
                        ORCA OPTIMIZATION COORDINATE SETUP
------------------------------------------------------------------------------

The optimization will be done in redundant internal coordinates (2022)
Making redundant internal coordinates   ...  (2022 redundants) done
Evaluating the initial hessian          ...  (Almloef) done
Evaluating the coordinates              ...  done
Calculating the B-matrix                .... done
Calculating the G-matrix                .... done
Diagonalizing the G-matrix              .... done
Small eigenvalue found = 1.019e-02
Small eigenvalue found = 1.799e-02
Small eigenvalue found = 2.497e-02
Small eigenvalue found = 2.537e-02
The first mode is                       ....   64
The number of degrees of freedom        ....   93

    -----------------------------------------------------------------
                    Redundant Internal Coordinates


    -----------------------------------------------------------------
         Definition                    Initial Value    Approx d2E/dq
    -----------------------------------------------------------------
      1. B(C   1,C   0)                  1.5308         0.372513   
      2. B(C   2,C   1)                  1.5305         0.372956   
      3. B(C   3,C   1)                  1.5434         0.355601   
      4. B(C   4,C   3)                  1.5141         0.396044   
      5. B(C   5,C   4)                  1.3995         0.603393   
      6. B(C   6,C   5)                  1.3983         0.606059   
      7. B(C   7,C   6)                  1.4025         0.596772   
      8. B(C   8,C   7)                  1.4034         0.594715   
      9. B(C   9,C   8)                  1.3966         0.609882   
     10. B(C   9,C   4)                  1.3991         0.604147   
     11. B(C  10,C   7)                  1.5239         0.381999   
     12. B(C  11,C  10)                  1.5329         0.369619   
     13. B(C  12,C  10)                  1.5269         0.377842   
     14. B(O  13,C  12)                  1.3526         0.642036   
     15. B(O  14,C  12)                  1.2244         1.028160   
     16. B(H  15,C   0)                  1.0949         0.353677   
     17. B(H  16,C   0)                  1.0953         0.353206   
     18. B(H  17,C   0)                  1.0946         0.354015   
     19. B(H  18,C   1)                  1.0957         0.352693   
     20. B(H  19,C   2)                  1.0952         0.353273   
     21. B(H  20,C   2)                  1.0953         0.353186   
     22. B(H  21,C   2)                  1.0949         0.353661   
     23. B(H  22,C   3)                  1.0979         0.349854   
     24. B(H  23,C   3)                  1.0980         0.349613   
     25. B(H  24,C   5)                  1.0876         0.363294   
     26. B(H  25,C   6)                  1.0882         0.362520   
     27. B(H  26,C   8)                  1.0886         0.361913   
     28. B(H  27,C   9)                  1.0888         0.361640   
     29. B(H  28,C  10)                  1.0985         0.349011   
     30. B(H  29,C  11)                  1.0955         0.352904   
     31. B(H  30,C  11)                  1.0956         0.352796   
     32. B(H  31,C  11)                  1.0956         0.352829   
     33. B(H  32,H  17)                  4.0403         0.000001   
     34. B(H  32,O  13)                  0.9740         0.493805   
     35. A(C   1,C   0,H  15)          110.6012         0.323211   
     36. A(H  15,C   0,H  17)          107.0596         0.289245   
     37. A(C   1,C   0,H  17)          111.5122         0.323262   
     38. A(H  16,C   0,H  17)          108.0467         0.289185   
     39. A(C   1,C   0,H  16)          111.2422         0.323141   
     40. A(H  15,C   0,H  16)          108.2131         0.289141   
     41. A(C   0,C   1,C   3)          111.7539         0.360132   
     42. A(C   2,C   1,H  18)          107.4648         0.323127   
     43. A(C   2,C   1,C   3)          110.5529         0.360205   
     44. A(C   3,C   1,H  18)          109.1678         0.320615   
     45. A(C   0,C   1,H  18)          108.0788         0.323064   
     46. A(C   0,C   1,C   2)          109.6932         0.363072   
     47. A(C   1,C   2,H  19)          111.4324         0.323214   
     48. A(H  20,C   2,H  21)          107.6854         0.289137   
     49. A(C   1,C   2,H  20)          110.5286         0.323201   
     50. A(H  19,C   2,H  21)          108.1533         0.289148   
     51. A(C   1,C   2,H  21)          110.9766         0.323272   
     52. A(H  19,C   2,H  20)          107.9229         0.289087   
     53. A(C   1,C   3,H  23)          109.9811         0.320156   
     54. A(C   4,C   3,H  22)          109.8411         0.325897   
     55. A(H  22,C   3,H  23)          105.9756         0.288188   
     56. A(C   1,C   3,C   4)          113.1722         0.363917   
     57. A(C   1,C   3,H  22)          109.4931         0.320192   
     58. A(C   4,C   3,H  23)          108.1198         0.325860   
     59. A(C   5,C   4,C   9)          118.8196         0.429947   
     60. A(C   3,C   4,C   5)          120.8000         0.398868   
     61. A(C   3,C   4,C   9)          120.3691         0.398956   
     62. A(C   4,C   5,C   6)          120.6219         0.430191   
     63. A(C   6,C   5,H  24)          119.0979         0.352079   
     64. A(C   4,C   5,H  24)          120.2799         0.351817   
     65. A(C   5,C   6,C   7)          120.7185         0.429340   
     66. A(C   7,C   6,H  25)          120.8421         0.351035   
     67. A(C   5,C   6,H  25)          118.4266         0.351952   
     68. A(C   8,C   7,C  10)          121.7292         0.395340   
     69. A(C   6,C   7,C  10)          119.8045         0.395580   
     70. A(C   6,C   7,C   8)          118.4162         0.427888   
     71. A(C   9,C   8,H  26)          118.4633         0.352227   
     72. A(C   7,C   8,C   9)          120.8090         0.429559   
     73. A(C   7,C   8,H  26)          120.7241         0.350731   
     74. A(C   4,C   9,C   8)          120.6042         0.430774   
     75. A(C   4,C   9,H  27)          120.3900         0.351620   
     76. A(C   8,C   9,H  27)          119.0058         0.352182   
     77. A(C   7,C  10,C  11)          109.7811         0.364076   
     78. A(C  12,C  10,H  28)          104.5771         0.323260   
     79. A(C  11,C  10,H  28)          107.5644         0.322096   
     80. A(C   7,C  10,H  28)          107.8285         0.323841   
     81. A(C  11,C  10,C  12)          109.3994         0.363396   
     82. A(C   7,C  10,C  12)          117.1803         0.365449   
     83. A(H  30,C  11,H  31)          107.8271         0.288980   
     84. A(H  29,C  11,H  31)          106.9853         0.288994   
     85. A(C  10,C  11,H  31)          111.2958         0.322671   
     86. A(H  29,C  11,H  30)          107.9222         0.288990   
     87. A(C  10,C  11,H  30)          110.8782         0.322666   
     88. A(C  10,C  11,H  29)          111.7386         0.322682   
     89. A(O  13,C  12,O  14)          120.4769         0.472599   
     90. A(C  10,C  12,O  14)          122.7010         0.432046   
     91. A(C  10,C  12,O  13)          116.7921         0.397365   
     92. A(C  12,O  13,H  32)          114.9996         0.369057   
     93. D(C   3,C   1,C   0,H  15)   -178.9388         0.011084   
     94. D(C   2,C   1,C   0,H  15)     58.0846         0.011084   
     95. D(C   3,C   1,C   0,H  17)    -59.9238         0.011084   
     96. D(C   3,C   1,C   0,H  16)     60.7720         0.011084   
     97. D(C   2,C   1,C   0,H  16)    -62.2046         0.011084   
     98. D(C   2,C   1,C   0,H  17)    177.0996         0.011084   
     99. D(H  19,C   2,C   1,C   3)    -61.3764         0.011109   
    100. D(H  19,C   2,C   1,C   0)     62.3068         0.011109   
    101. D(H  20,C   2,C   1,H  18)     59.5736         0.011109   
    102. D(H  20,C   2,C   1,C   3)    178.6232         0.011109   
    103. D(H  20,C   2,C   1,C   0)    -57.6936         0.011109   
    104. D(H  19,C   2,C   1,H  18)    179.5740         0.011109   
    105. D(C   4,C   3,C   1,H  18)    -59.8720         0.010163   
    106. D(C   4,C   3,C   1,C   0)     59.6290         0.010163   
    107. D(C   4,C   3,C   1,C   2)   -177.8845         0.010163   
    108. D(H  22,C   3,C   1,H  18)    177.2289         0.010163   
    109. D(H  22,C   3,C   1,C   2)     59.2164         0.010163   
    110. D(H  22,C   3,C   1,C   0)    -63.2701         0.010163   
    111. D(C   9,C   4,C   3,C   1)   -116.6358         0.011651   
    112. D(C   5,C   4,C   3,H  23)    -59.9559         0.011651   
    113. D(C   5,C   4,C   3,H  22)   -175.1661         0.011651   
    114. D(C   9,C   4,C   3,H  22)      6.0704         0.011651   
    115. D(C   5,C   4,C   3,C   1)     62.1277         0.011651   
    116. D(H  24,C   5,C   4,C   9)   -179.3297         0.025114   
    117. D(C   6,C   5,C   4,C   9)      0.8878         0.025114   
    118. D(H  24,C   5,C   4,C   3)      1.8880         0.025114   
    119. D(C   6,C   5,C   4,C   3)   -177.8945         0.025114   
    120. D(H  25,C   6,C   5,H  24)      0.2275         0.025349   
    121. D(H  25,C   6,C   5,C   4)   -179.9874         0.025349   
    122. D(C   7,C   6,C   5,C   4)     -1.2790         0.025349   
    123. D(C   7,C   6,C   5,H  24)    178.9360         0.025349   
    124. D(C  10,C   7,C   6,H  25)      2.2118         0.024537   
    125. D(C  10,C   7,C   6,C   5)   -176.4653         0.024537   
    126. D(C   8,C   7,C   6,H  25)    179.6825         0.024537   
    127. D(C   8,C   7,C   6,C   5)      1.0054         0.024537   
    128. D(H  26,C   8,C   7,C  10)     -2.2503         0.024359   
    129. D(H  26,C   8,C   7,C   6)   -179.6698         0.024359   
    130. D(C   9,C   8,C   7,C  10)    177.0407         0.024359   
    131. D(C   9,C   8,C   7,C   6)     -0.3789         0.024359   
    132. D(H  27,C   9,C   8,C   7)   -179.9491         0.025688   
    133. D(C   4,C   9,C   8,H  26)    179.3207         0.025688   
    134. D(C   4,C   9,C   8,C   7)      0.0140         0.025688   
    135. D(H  27,C   9,C   4,C   5)    179.7015         0.025181   
    136. D(H  27,C   9,C   4,C   3)     -1.5108         0.025181   
    137. D(C   8,C   9,C   4,C   5)     -0.2612         0.025181   
    138. D(H  27,C   9,C   8,H  26)     -0.6425         0.025688   
    139. D(C   8,C   9,C   4,C   3)    178.5266         0.025181   
    140. D(H  28,C  10,C   7,C   6)      1.6017         0.010882   
    141. D(C  12,C  10,C   7,C   8)     66.6788         0.010882   
    142. D(C  12,C  10,C   7,C   6)   -115.9367         0.010882   
    143. D(C  11,C  10,C   7,C   8)    -58.8756         0.010882   
    144. D(C  11,C  10,C   7,C   6)    118.5089         0.010882   
    145. D(H  30,C  11,C  10,H  28)     60.2768         0.010923   
    146. D(H  30,C  11,C  10,C  12)    173.3150         0.010923   
    147. D(H  30,C  11,C  10,C   7)    -56.7959         0.010923   
    148. D(H  29,C  11,C  10,H  28)   -179.2822         0.010923   
    149. D(H  29,C  11,C  10,C  12)    -66.2440         0.010923   
    150. D(H  29,C  11,C  10,C   7)     63.6451         0.010923   
    151. D(O  14,C  12,C  10,C  11)    -46.9991         0.010661   
    152. D(O  14,C  12,C  10,C   7)   -172.7429         0.010661   
    153. D(O  13,C  12,C  10,H  28)   -110.0435         0.010661   
    154. D(O  13,C  12,C  10,C  11)    134.9856         0.010661   
    155. D(O  13,C  12,C  10,C   7)      9.2418         0.010661   
    156. D(H  32,O  13,C  12,O  14)   -178.0530         0.030404   
    157. D(H  32,O  13,C  12,C  10)      0.0092         0.030404   
    -----------------------------------------------------------------

Number of atoms                         .... 33
Number of degrees of freedom            .... 157


         *************************************************************
         *                GEOMETRY OPTIMIZATION CYCLE   1            *
         *************************************************************
---------------------------------
CARTESIAN COORDINATES (ANGSTROEM)
---------------------------------
  C      2.950210   -0.389000    1.262740
  C      2.520450   -1.278480    0.093380
  C      0.995530   -1.407410    0.076750
  C      3.033050   -0.735040   -1.257200
  C      4.542160   -0.631790   -1.323750
  C      5.344210   -1.773030   -1.210370
  C      6.738460   -1.668380   -1.228430
  C      7.361340   -0.421860   -1.387150
  C      6.552280    0.718750   -1.505690
  C      5.159950    0.614500   -1.474460
  C      8.879980   -0.340920   -1.484840
  C      9.281890    0.247720   -2.841950
  C      9.611730    0.405240   -0.371630
  O      8.877450    0.766000    0.705490
  O     10.811950    0.643840   -0.413180
  H      2.593040   -0.801410    2.212030
  H      2.550000    0.625120    1.157900
  H      4.040240   -0.317770    1.333420
  H      2.933340   -2.279880    0.258260
  H      0.513450   -0.436170   -0.077450
  H      0.634240   -1.816020    1.026560
  H      0.667840   -2.081460   -0.721440
  H      2.583410    0.247560   -1.451140
  H      2.698960   -1.387020   -2.075130
  H      4.888860   -2.754890   -1.103260
  H      7.327480   -2.578870   -1.137920
  H      6.995990    1.704320   -1.635670
  H      4.560540    1.518480   -1.569840
  H      9.275100   -1.364820   -1.437490
  H      8.930760    1.279030   -2.956910
  H      8.863860   -0.344310   -3.663560
  H     10.370780    0.265190   -2.961320
  H      7.938070    0.511290    0.667340

----------------------------
CARTESIAN COORDINATES (A.U.)
----------------------------
  NO LB      ZA    FRAG     MASS         X           Y           Z
   0 C     6.0000    0    12.011    5.575089   -0.735103    2.386233
   1 C     6.0000    0    12.011    4.762960   -2.415977    0.176463
   2 C     6.0000    0    12.011    1.881279   -2.659619    0.145036
   3 C     6.0000    0    12.011    5.731634   -1.389024   -2.375764
   4 C     6.0000    0    12.011    8.583438   -1.193910   -2.501525
   5 C     6.0000    0    12.011   10.099093   -3.350541   -2.287268
   6 C     6.0000    0    12.011   12.733844   -3.152781   -2.321396
   7 C     6.0000    0    12.011   13.910917   -0.797200   -2.621334
   8 C     6.0000    0    12.011   12.382015    1.358241   -2.845342
   9 C     6.0000    0    12.011    9.750892    1.161237   -2.786326
  10 C     6.0000    0    12.011   16.780730   -0.644245   -2.805941
  11 C     6.0000    0    12.011   17.540230    0.468123   -5.370507
  12 C     6.0000    0    12.011   18.163537    0.765793   -0.702279
  13 O     8.0000    0    15.999   16.775949    1.447530    1.333183
  14 O     8.0000    0    15.999   20.431624    1.216681   -0.780797
  15 H     1.0000    0     1.008    4.900135   -1.514445    4.180131
  16 H     1.0000    0     1.008    4.818802    1.181306    2.188114
  17 H     1.0000    0     1.008    7.634947   -0.600498    2.519799
  18 H     1.0000    0     1.008    5.543209   -4.308349    0.488041
  19 H     1.0000    0     1.008    0.970280   -0.824242   -0.146359
  20 H     1.0000    0     1.008    1.198540   -3.431780    1.939917
  21 H     1.0000    0     1.008    1.262035   -3.933389   -1.363324
  22 H     1.0000    0     1.008    4.881937    0.467821   -2.742257
  23 H     1.0000    0     1.008    5.100295   -2.621088   -3.921427
  24 H     1.0000    0     1.008    9.238607   -5.205988   -2.084859
  25 H     1.0000    0     1.008   13.846930   -4.873358   -2.150357
  26 H     1.0000    0     1.008   13.220505    3.220698   -3.090968
  27 H     1.0000    0     1.008    8.618172    2.869511   -2.966568
  28 H     1.0000    0     1.008   17.527399   -2.579136   -2.716462
  29 H     1.0000    0     1.008   16.876691    2.417016   -5.587750
  30 H     1.0000    0     1.008   16.750268   -0.650652   -6.923125
  31 H     1.0000    0     1.008   19.597934    0.501136   -5.596084
  32 H     1.0000    0     1.008   15.000778    0.966198    1.261090

--------------------------------
INTERNAL COORDINATES (ANGSTROEM)
--------------------------------
 C      0   0   0     0.000000000000     0.00000000     0.00000000
 C      1   0   0     1.530774685445     0.00000000     0.00000000
 C      2   1   0     1.530451079976   109.69319757     0.00000000
 C      2   1   3     1.543422213783   111.75390370   122.97659260
 C      4   2   1     1.514101204378   113.17224034    59.62897433
 C      5   4   2     1.399488465297   120.80003733    62.12774448
 C      6   5   4     1.398288542684   120.62185491   182.10546629
 C      7   6   5     1.402491940512   120.71853495   358.72101334
 C      8   7   6     1.403431860583   118.41616767     1.00540452
 C      9   8   7     1.396576601658   120.80897981   359.62112357
 C      8   7   6     1.523929811146   119.80454381   183.53472139
 C     11   8   7     1.532897990670   109.78111772   118.50890178
 C     11   8   7     1.526908416442   117.18028431   244.06325010
 O     13  11   8     1.352590991542   116.79212193     9.24179940
 O     13  11   8     1.224411863263   122.70096910   187.25713881
 H      1   2   3     1.094899046077   110.60116628    58.08460252
 H      1   2   3     1.095261997926   111.24215826   297.79538611
 H      1   2   3     1.094639107743   111.51224075   177.09963316
 H      2   1   3     1.095657577211   108.07878105   243.11782334
 H      3   2   1     1.095210438226   111.43237591    62.30681607
 H      3   2   1     1.095276966023   110.52860221   302.30640348
 H      3   2   1     1.094911601318   110.97655958   182.90158328
 H      4   2   1     1.097857738143   109.49312922   296.72986935
 H      4   2   1     1.098045323928   109.98113291   180.66617580
 H      6   5   4     1.087596080445   120.27986322     1.88797466
 H      7   6   5     1.088176759814   118.42658827   180.01256479
 H      9   8   7     1.088632899282   120.72408072   180.33017648
 H     10   9   8     1.088838616554   119.00576528   180.05085388
 H     11   8   7     1.098514017617   107.82851498     1.60169337
 H     12  11   8     1.095494589033   111.73864193    63.64514186
 H     12  11   8     1.095578200723   110.87819736   303.20408023
 H     12  11   8     1.095552750852   111.29575597   183.18075441
 H     14  13  11     0.974046914168   114.99964197     0.00000000

---------------------------
INTERNAL COORDINATES (A.U.)
---------------------------
 C      0   0   0     0.000000000000     0.00000000     0.00000000
 C      1   0   0     2.892744928231     0.00000000     0.00000000
 C      2   1   0     2.892133402519   109.69319757     0.00000000
 C      2   1   3     2.916645293061   111.75390370   122.97659260
 C      4   2   1     2.861236615315   113.17224034    59.62897433
 C      5   4   2     2.644649926994   120.80003733    62.12774448
 C      6   5   4     2.642382401872   120.62185491   182.10546629
 C      7   6   5     2.650325672599   120.71853495   358.72101334
 C      8   7   6     2.652101864122   118.41616767     1.00540452
 C      9   8   7     2.639147302177   120.80897981   359.62112357
 C      8   7   6     2.879809990385   119.80454381   183.53472139
 C     11   8   7     2.896757393604   109.78111772   118.50890178
 C     11   8   7     2.885438738654   117.18028431   244.06325010
 O     13  11   8     2.556026545223   116.79212193     9.24179940
 O     13  11   8     2.313803096692   122.70096910   187.25713881
 H      1   2   3     2.069059341377   110.60116628    58.08460252
 H      1   2   3     2.069745220971   111.24215826   297.79538611
 H      1   2   3     2.068568129114   111.51224075   177.09963316
 H      2   1   3     2.070492757485   108.07878105   243.11782334
 H      3   2   1     2.069647787260   111.43237591    62.30681607
 H      3   2   1     2.069773506575   110.52860221   302.30640348
 H      3   2   1     2.069083067344   110.97655958   182.90158328
 H      4   2   1     2.074650459096   109.49312922   296.72986935
 H      4   2   1     2.075004944857   109.98113291   180.66617580
 H      6   5   4     2.055258736368   120.27986322     1.88797466
 H      7   6   5     2.056356061347   118.42658827   180.01256479
 H      9   8   7     2.057218040020   120.72408072   180.33017648
 H     10   9   8     2.057606789325   119.00576528   180.05085388
 H     11   8   7     2.075890647569   107.82851498     1.60169337
 H     12  11   8     2.070184754464   111.73864193    63.64514186
 H     12  11   8     2.070342757661   110.87819736   303.20408023
 H     12  11   8     2.070294664375   111.29575597   183.18075441
 H     14  13  11     1.840681909368   114.99964197     0.00000000

---------------------
BASIS SET INFORMATION
---------------------
There are 3 groups of distinct atoms

 Group   1 Type C   : 12s6p1d contracted to 5s4p1d pattern {63111/3111/1}
 Group   2 Type O   : 12s6p1d contracted to 5s4p1d pattern {63111/3111/1}
 Group   3 Type H   : 5s1p contracted to 3s1p pattern {311/1}

Atom   0C    basis set group =>   1
Atom   1C    basis set group =>   1
Atom   2C    basis set group =>   1
Atom   3C    basis set group =>   1
Atom   4C    basis set group =>   1
Atom   5C    basis set group =>   1
Atom   6C    basis set group =>   1
Atom   7C    basis set group =>   1
Atom   8C    basis set group =>   1
Atom   9C    basis set group =>   1
Atom  10C    basis set group =>   1
Atom  11C    basis set group =>   1
Atom  12C    basis set group =>   1
Atom  13O    basis set group =>   2
Atom  14O    basis set group =>   2
Atom  15H    basis set group =>   3
Atom  16H    basis set group =>   3
Atom  17H    basis set group =>   3
Atom  18H    basis set group =>   3
Atom  19H    basis set group =>   3
Atom  20H    basis set group =>   3
Atom  21H    basis set group =>   3
Atom  22H    basis set group =>   3
Atom  23H    basis set group =>   3
Atom  24H    basis set group =>   3
Atom  25H    basis set group =>   3
Atom  26H    basis set group =>   3
Atom  27H    basis set group =>   3
Atom  28H    basis set group =>   3
Atom  29H    basis set group =>   3
Atom  30H    basis set group =>   3
Atom  31H    basis set group =>   3
Atom  32H    basis set group =>   3
---------------------------------
AUXILIARY/J BASIS SET INFORMATION
---------------------------------
There are 3 groups of distinct atoms

 Group   1 Type C   : 12s5p4d2f1g contracted to 6s4p3d1f1g pattern {711111/2111/211/2/1}
 Group   2 Type O   : 12s5p4d2f1g contracted to 6s4p3d1f1g pattern {711111/2111/211/2/1}
 Group   3 Type H   : 5s2p1d contracted to 3s1p1d pattern {311/2/1}

Atom   0C    basis set group =>   1
Atom   1C    basis set group =>   1
Atom   2C    basis set group =>   1
Atom   3C    basis set group =>   1
Atom   4C    basis set group =>   1
Atom   5C    basis set group =>   1
Atom   6C    basis set group =>   1
Atom   7C    basis set group =>   1
Atom   8C    basis set group =>   1
Atom   9C    basis set group =>   1
Atom  10C    basis set group =>   1
Atom  11C    basis set group =>   1
Atom  12C    basis set group =>   1
Atom  13O    basis set group =>   2
Atom  14O    basis set group =>   2
Atom  15H    basis set group =>   3
Atom  16H    basis set group =>   3
Atom  17H    basis set group =>   3
Atom  18H    basis set group =>   3
Atom  19H    basis set group =>   3
Atom  20H    basis set group =>   3
Atom  21H    basis set group =>   3
Atom  22H    basis set group =>   3
Atom  23H    basis set group =>   3
Atom  24H    basis set group =>   3
Atom  25H    basis set group =>   3
Atom  26H    basis set group =>   3
Atom  27H    basis set group =>   3
Atom  28H    basis set group =>   3
Atom  29H    basis set group =>   3
Atom  30H    basis set group =>   3
Atom  31H    basis set group =>   3
Atom  32H    basis set group =>   3
------------------------------------------------------------------------------
                             ORCA STARTUP CALCULATIONS
                           -- RI-GTO INTEGRALS CHOSEN --
------------------------------------------------------------------------------
------------------------------------------------------------------------------
                   ___                                                        
                  /   \      - P O W E R E D   B Y -                         
                 /     \                                                     
                 |  |  |   _    _      __       _____    __    __             
                 |  |  |  | |  | |    /  \     |  _  \  |  |  /  |          
                  \  \/   | |  | |   /    \    | | | |  |  | /  /          
                 / \  \   | |__| |  /  /\  \   | |_| |  |  |/  /          
                |  |  |   |  __  | /  /__\  \  |    /   |      \           
                |  |  |   | |  | | |   __   |  |    \   |  |\   \          
                \     /   | |  | | |  |  |  |  | |\  \  |  | \   \       
                 \___/    |_|  |_| |__|  |__|  |_| \__\ |__|  \__/        
                                                                              
                      - O R C A' S   B I G   F R I E N D -                    
                                      &                                       
                       - I N T E G R A L  F E E D E R -                       
                                                                              
 v1 FN, 2020, v2 2021, v3 2022-2024                                           
------------------------------------------------------------------------------


----------------------
SHARK INTEGRAL PACKAGE
----------------------

Number of atoms                             ...     33
Number of basis functions                   ...    438
Number of shells                            ...    222
Maximum angular momentum                    ...      2
Integral batch strategy                     ... SHARK/LIBINT Hybrid
RI-J (if used) integral strategy            ... SPLIT-RIJ (Revised 2003 algorithm where possible)
Printlevel                                  ...      1
Contraction scheme used                     ... SEGMENTED contraction
Prescreening option                         ... SCHWARTZ
   Thresh                                   ... 2.500e-11
   Tcut                                     ... 2.500e-12
   Tpresel                                  ... 2.500e-12 
Coulomb Range Separation                    ... NOT USED
Exchange Range Separation                   ... NOT USED
Multipole approximations                    ... NOT USED
Finite Nucleus Model                        ... NOT USED
CABS basis                                  ... NOT available
Auxiliary Coulomb fitting basis             ... AVAILABLE
   # of basis functions in Aux-J            ...    933
   # of shells in Aux-J                     ...    315
   Maximum angular momentum in Aux-J        ...      4
Auxiliary J/K fitting basis                 ... NOT available
Auxiliary Correlation fitting basis         ... NOT available
Auxiliary 'external' fitting basis          ... NOT available

Checking pre-screening integrals            ... done (  0.0 sec) Dimension = 222
Check shell pair data                       ... done (  0.0 sec)
Shell pair information
Shell pair cut-off parameter TPreSel        ...   2.5e-12
Total number of shell pairs                 ...     24753
Shell pairs after pre-screening             ...     19677
Total number of primitive shell pairs       ...     77790
Primitive shell pairs kept                  ...     42763
          la=0 lb=0:   6555 shell pairs
          la=1 lb=0:   8093 shell pairs
          la=1 lb=1:   2556 shell pairs
          la=2 lb=0:   1467 shell pairs
          la=2 lb=1:    915 shell pairs
          la=2 lb=2:     91 shell pairs

Calculating one electron integrals          ... done (  0.0 sec)
Calculating RI/J V-Matrix + Cholesky decomp.... done (  0.0 sec)
Calculating Nuclear repulsion               ... done (  0.0 sec) ENN=    969.196472731820 Eh

Diagonalization of the overlap matrix:
Smallest eigenvalue                        ... 8.130e-07
Time for diagonalization                   ...    0.010 sec
Threshold for overlap eigenvalues          ... 1.000e-07
Number of eigenvalues below threshold      ... 0

IMPORTANT:
Smallest eigenvalue of S below the DiffSThresh (1.000e-06) while
Thresh>1e-12 and/or TCut>1e-13! In order to avoid SCF convergence issues,
Thresh will be set to at least 1e-12 and TCut to at least 1e-13.
This can be turned off by adding %SCF DiffSThresh -1 END to the input.

Time for construction of square roots      ...    0.007 sec
Total time needed                          ...    0.020 sec

-------------------
DFT GRID GENERATION
-------------------

General Integration Accuracy     IntAcc      ... 4.388
Radial Grid Type                 RadialGrid  ... OptM3 with GC (2021)
Angular Grid (max. ang.)         AngularGrid ... 4 (Lebedev-302)
Angular grid pruning method      GridPruning ... 4 (adaptive)
Weight generation scheme         WeightScheme... mBecke (2022)
Basis function cutoff            BFCut       ... 1.0000e-11
Integration weight cutoff        WCut        ... 1.0000e-14
Partially contracted basis set               ... off
Rotationally invariant grid construction     ... off
Angular grids for H and He will be reduced by one unit
Diffuse basis detected: some atoms will have their outermost
                        angular grid increased by 1.

Total number of grid points                  ...   150464
Total number of batches                      ...     2367
Average number of points per batch           ...       63
Average number of grid points per atom       ...     4560
Initializing property integral containers    ... done (  0.0 sec)

SHARK setup successfully completed in   1.2 seconds

Maximum memory used throughout the entire STARTUP-calculation: 76.4 MB
-------------------------------------------------------------------------------
                                 ORCA GUESS
                   Start orbitals & Density for SCF / CASSCF
-------------------------------------------------------------------------------

------------
SCF SETTINGS
------------
Hamiltonian:
 Density Functional     Method          .... DFT(GTOs)
 Exchange Functional    Exchange        .... PBE
   PBE kappa parameter   XKappa         ....  0.804000
   PBE mue parameter    XMuePBE         ....  0.219520
 Correlation Functional Correlation     .... PBE
   PBE beta parameter  CBetaPBE         ....  0.066725
 LDA part of GGA corr.  LDAOpt          .... PW91-LDA
 Gradients option       PostSCFGGA      .... off
   NL short-range parameter             ....  6.400000
 RI-approximation to the Coulomb term is turned on
   Number of AuxJ basis functions       .... 933


General Settings:
 Integral files         IntName         .... Ibuprofen\Ibuprofen_PBE_6-311+G\Ibuprofen_PBE_6-311+G.orcainp
 Hartree-Fock type      HFTyp           .... RHF
 Total Charge           Charge          ....    0
 Multiplicity           Mult            ....    1
 Number of Electrons    NEL             ....  112
 Basis Dimension        Dim             ....  438
 Nuclear Repulsion      ENuc            ....    969.1964727318 Eh

Convergence Acceleration:
 AO-DIIS                CNVDIIS         .... on
   Start iteration      DIISMaxIt       ....    12
   Startup error        DIISStart       ....  0.200000
   # of expansion vecs  DIISMaxEq       ....     5
   Bias factor          DIISBfac        ....   1.050
   Max. coefficient     DIISMaxC        ....  10.000
 MO-DIIS                CNVKDIIS        .... off
 Trust-Rad. Augm. Hess. CNVTRAH         .... auto
   Auto Start mean grad. ratio tolernc. ....  1.125000
   Auto Start start iteration           ....    50
   Auto Start num. interpolation iter.  ....    10
   Max. Number of Micro iterations      ....    24
   Max. Number of Macro iterations      .... Maxiter - #DIIS iter
   Number of Davidson start vectors     ....     2
   Converg. threshold    (grad. norm)   ....   1.000e-05
   Grad. Scal. Fac. for Micro threshold ....   0.100
   Minimum threshold for Micro iter.    ....   1.000e-02
   NR start threshold (gradient norm)   ....   1.000e-04
   Initial trust radius                 ....   0.400
   Minimum AH scaling param. (alpha)    ....   1.000
   Maximum AH scaling param. (alpha)    .... 1000.000
   Quad. conv. algorithm                .... NR
   White noise on init. David. guess    .... on
   Maximum white noise                  ....   0.010
   Pseudo random numbers                .... off
   Inactive MOs                         .... canonical
   Orbital update algorithm             .... Taylor
   Preconditioner                       .... Diag
   Full preconditioner red. dimension   ....   250
 SOSCF                  CNVSOSCF        .... on
   Start iteration      SOSCFMaxIt      ....   150
   Startup grad/error   SOSCFStart      ....  0.003300
   Hessian update       SOSCFHessUp     .... L-BFGS
 Level Shifting         CNVShift        .... on
   Level shift para.    LevelShift      ....    0.2500
   Turn off err/grad.   ShiftErr        ....    0.0010
 Zerner damping         CNVZerner       .... off
 Static damping         CNVDamp         .... on
   Fraction old density DampFac         ....    0.7000
   Max. Damping (<1)    DampMax         ....    0.9800
   Min. Damping (>=0)   DampMin         ....    0.0000
   Turn off err/grad.   DampErr         ....    0.1000

SCF Procedure:
 Maximum # iterations   MaxIter         ....   125
 SCF integral mode      SCFMode         .... Direct
   Integral package                     .... SHARK and LIBINT hybrid scheme
 Reset frequency        DirectResetFreq ....    20
 Integral Threshold     Thresh          ....  1.000e-12 Eh
 Primitive CutOff       TCut            ....  1.000e-13 Eh

Convergence Tolerance:
 Convergence Check Mode ConvCheckMode   .... Total+1el-Energy
 Convergence forced     ConvForced      .... 0
 Energy Change          TolE            ....  1.000e-08 Eh
 1-El. energy change                    ....  1.000e-05 Eh
 Orbital Gradient       TolG            ....  1.000e-05
 Orbital Rotation angle TolX            ....  1.000e-05
 DIIS Error             TolErr          ....  5.000e-07

------------------------------
INITIAL GUESS: MODEL POTENTIAL
------------------------------
Loading Hartree-Fock densities                     ... done
Calculating cut-offs                               ... done
Initializing the effective Hamiltonian             ... done
Setting up the integral package (SHARK)            ... done
Starting the Coulomb interaction                   ... done (   0.5 sec)
Making the grid                                    ... done (   0.3 sec)
Mapping shells                                     ... done
Starting the XC term evaluation                    ... done (   0.6 sec)
  promolecular density results
     # of electrons  =    111.996236703
     EX              =    -88.096162991
     EC              =     -3.713885031
     EX+EC           =    -91.810048022
Transforming the Hamiltonian                       ... done (   0.0 sec)
Diagonalizing the Hamiltonian                      ... done (   0.0 sec)
Back transforming the eigenvectors                 ... done (   0.0 sec)
Now organizing SCF variables                       ... done
                      ------------------
                      INITIAL GUESS DONE (   1.5 sec)
                      ------------------
             **** ENERGY FILE WAS UPDATED (Ibuprofen\Ibuprofen_PBE_6-311+G\Ibuprofen_PBE_6-311+G.orcainp.en.tmp) ****
Finished Guess after   1.5 sec
Maximum memory used throughout the entire GUESS-calculation: 46.4 MB

-------------------------------------------------------------------------------------------
                                      ORCA LEAN-SCF
                              memory conserving SCF solver
-------------------------------------------------------------------------------------------

--------------------
CPCM SOLVATION MODEL
--------------------
CPCM parameters:
  Epsilon                                         ...      80.1510
  Refrac                                          ...       1.3328
  Rsolv                                           ...       1.3000
  Surface type                                    ... GAUSSIAN VDW
  Discretization scheme                           ... Constant charge density
    Threshold for H atoms                         ...       5.0000 (charges/Ang^2)
    Threshold for non-H atoms                     ...       5.0000 (charges/Ang^2)
  Epsilon function type                           ...         CPCM
Solvent:                                          ... WATER
Radii:
  Scheme                                          ... Element-dependent radii
  Radius for C  used is    3.8550 Bohr (=   2.0400 Ang.)
  Radius for O  used is    3.4469 Bohr (=   1.8240 Ang.)
  Radius for H  used is    2.4944 Bohr (=   1.3200 Ang.)
Calculating surface                               ...        done! (  0.0s)
Cavity surface points                             ...         2777
Cavity Volume                                     ...    1837.0921
Cavity Surface-area                               ...     985.9078
Calculating surface distance matrix               ...        done! (  0.0s)
Performing Cholesky decomposition & store         ...        done! (  0.1s)
Overall time for CPCM initialization              ...                 0.2s

----------------------------------------D-I-I-S--------------------------------------------
Iteration    Energy (Eh)           Delta-E    RMSDP     MaxDP     DIISErr   Damp  Time(sec)
-------------------------------------------------------------------------------------------
               ***  Starting incremental Fock matrix formation  ***
    1    -655.6371517381104468     0.00e+00  1.86e-02  2.93e+00  2.90e-01  0.700   4.8
    2    -655.8461310573746914    -2.09e-01  1.06e-02  1.06e+00  8.63e-02  0.700   4.5
                               ***Turning on AO-DIIS***
    3    -655.9143288554795390    -6.82e-02  5.01e-03  4.52e-01  2.58e-02  0.700   4.4
    4    -655.9572402751153959    -4.29e-02  8.07e-03  9.23e-01  1.27e-02  0.000   4.3
    5    -656.0547895464445673    -9.75e-02  2.11e-03  1.71e-01  7.36e-03  0.000   4.3
    6    -656.0558668390270896    -1.08e-03  7.82e-04  7.95e-02  3.34e-03  0.000   4.2
                              *** Initializing SOSCF ***
---------------------------------------S-O-S-C-F--------------------------------------
Iteration    Energy (Eh)           Delta-E    RMSDP     MaxDP     MaxGrad    Time(sec)
--------------------------------------------------------------------------------------
    7    -656.0559603318603195    -9.35e-05  4.33e-04  4.20e-02  1.83e-03     4.0
               *** Restarting incremental Fock matrix formation ***
    8    -656.0559732107091122    -1.29e-05  4.88e-04  4.32e-02  2.86e-04     4.8
    9    -656.0559575203193390     1.57e-05  1.94e-04  2.77e-02  1.02e-03     3.8
   10    -656.0559770671173965    -1.95e-05  6.78e-05  5.91e-03  6.37e-05     3.6
   11    -656.0559767096973474     3.57e-07  4.21e-05  3.78e-03  7.50e-05     3.6
   12    -656.0559773990481744    -6.89e-07  4.41e-05  5.74e-03  9.31e-06     3.6
   13    -656.0559773728556365     2.62e-08  1.51e-05  1.49e-03  2.16e-05     3.4
   14    -656.0559774064548719    -3.36e-08  4.42e-05  5.62e-03  4.37e-06     3.2
   15    -656.0559774137253726    -7.27e-09  1.68e-05  2.08e-03  5.54e-06     3.3
                 **** Energy Check signals convergence ****

               *****************************************************
               *                     SUCCESS                       *
               *           SCF CONVERGED AFTER  15 CYCLES          *
               *****************************************************

             **** ENERGY FILE WAS UPDATED (Ibuprofen\Ibuprofen_PBE_6-311+G\Ibuprofen_PBE_6-311+G.orcainp.en.tmp) ****

----------------
TOTAL SCF ENERGY
----------------

Total Energy       :       -656.05597741372537 Eh          -17852.19073 eV

Components:
Nuclear Repulsion  :        969.19647273182011 Eh           26373.17681 eV
Electronic Energy  :      -1625.23268664519105 Eh          -44224.82975 eV
One Electron Energy:      -2812.56418529960683 Eh          -76533.76238 eV
Two Electron Energy:       1187.33149865441578 Eh           32308.93263 eV
CPCM Dielectric    :         -0.01976350035450 Eh              -0.53779 eV

Virial components:
Potential Energy   :      -1309.77676954781509 Eh          -35640.83784 eV
Kinetic Energy     :        653.72079213408972 Eh           17788.64711 eV
Virial Ratio       :          2.00357214472560

DFT components:
N(Alpha)           :       56.000006750353 electrons
N(Beta)            :       56.000006750353 electrons
N(Total)           :      112.000013500705 electrons
E(X)               :      -89.988878743417 Eh       
E(C)               :       -3.708946660479 Eh       
E(XC)              :      -93.697825403896 Eh       

CPCM Solvation Model Properties:
Surface-charge          :         -0.03773361455512
Corrected charge        :         -0.00000000000000
Outlying charge corr.   :          0.00008302501264 Eh               0.00226 eV
Free-energy (cav+disp)  :  This term is not implemented in the current solvation scheme

---------------
SCF CONVERGENCE
---------------

  Last Energy change         ...    7.2705e-09  Tolerance :   1.0000e-08
  Last MAX-Density change    ...    2.0848e-03  Tolerance :   1.0000e-07
  Last RMS-Density change    ...    1.6841e-05  Tolerance :   5.0000e-09
  Last DIIS Error            ...    1.8267e-03  Tolerance :   5.0000e-07
  Last Orbital Gradient      ...    5.5381e-06  Tolerance :   1.0000e-05
  Last Orbital Rotation      ...    9.8506e-06  Tolerance :   1.0000e-05


----------------
ORBITAL ENERGIES
----------------

  NO   OCC          E(Eh)            E(eV) 
   0   2.0000     -18.799535      -511.5614 
   1   2.0000     -18.745606      -510.0939 
   2   2.0000     -10.019889      -272.6551 
   3   2.0000      -9.911894      -269.7163 
   4   2.0000      -9.901841      -269.4428 
   5   2.0000      -9.894914      -269.2543 
   6   2.0000      -9.889899      -269.1178 
   7   2.0000      -9.889538      -269.1080 
   8   2.0000      -9.885786      -269.0059 
   9   2.0000      -9.885434      -268.9963 
  10   2.0000      -9.883087      -268.9325 
  11   2.0000      -9.876655      -268.7574 
  12   2.0000      -9.875459      -268.7249 
  13   2.0000      -9.860784      -268.3256 
  14   2.0000      -9.859891      -268.3013 
  15   2.0000      -1.019892       -27.7527 
  16   2.0000      -0.942408       -25.6442 
  17   2.0000      -0.793376       -21.5888 
  18   2.0000      -0.747448       -20.3391 
  19   2.0000      -0.723170       -19.6785 
  20   2.0000      -0.680527       -18.5181 
  21   2.0000      -0.674626       -18.3575 
  22   2.0000      -0.614506       -16.7216 
  23   2.0000      -0.610766       -16.6198 
  24   2.0000      -0.597247       -16.2519 
  25   2.0000      -0.566394       -15.4124 
  26   2.0000      -0.553891       -15.0721 
  27   2.0000      -0.530553       -14.4371 
  28   2.0000      -0.499298       -13.5866 
  29   2.0000      -0.478104       -13.0099 
  30   2.0000      -0.449612       -12.2346 
  31   2.0000      -0.428180       -11.6514 
  32   2.0000      -0.415743       -11.3129 
  33   2.0000      -0.409487       -11.1427 
  34   2.0000      -0.403126       -10.9696 
  35   2.0000      -0.401150       -10.9158 
  36   2.0000      -0.388109       -10.5610 
  37   2.0000      -0.383086       -10.4243 
  38   2.0000      -0.374444       -10.1891 
  39   2.0000      -0.364420        -9.9164 
  40   2.0000      -0.357394        -9.7252 
  41   2.0000      -0.344678        -9.3792 
  42   2.0000      -0.334424        -9.1001 
  43   2.0000      -0.329744        -8.9728 
  44   2.0000      -0.323901        -8.8138 
  45   2.0000      -0.320100        -8.7104 
  46   2.0000      -0.312622        -8.5069 
  47   2.0000      -0.301496        -8.2041 
  48   2.0000      -0.298010        -8.1093 
  49   2.0000      -0.290268        -7.8986 
  50   2.0000      -0.288564        -7.8522 
  51   2.0000      -0.281125        -7.6498 
  52   2.0000      -0.275568        -7.4986 
  53   2.0000      -0.250022        -6.8035 
  54   2.0000      -0.235717        -6.4142 
  55   2.0000      -0.218830        -5.9547 
  56   0.0000      -0.053886        -1.4663 
  57   0.0000      -0.050185        -1.3656 
  58   0.0000      -0.044756        -1.2179 
  59   0.0000      -0.014143        -0.3848 
  60   0.0000       0.001109         0.0302 
  61   0.0000       0.007948         0.2163 
  62   0.0000       0.010619         0.2890 
  63   0.0000       0.017380         0.4729 
  64   0.0000       0.023098         0.6285 
  65   0.0000       0.024739         0.6732 
  66   0.0000       0.026645         0.7251 
*Only the first 10 virtual orbitals were printed.

                    ********************************
                    * MULLIKEN POPULATION ANALYSIS *
                    ********************************

-----------------------
MULLIKEN ATOMIC CHARGES
-----------------------
   0 C :   -0.770764
   1 C :    0.631652
   2 C :   -0.846908
   3 C :   -1.170034
   4 C :    1.900501
   5 C :   -0.864229
   6 C :   -0.629010
   7 C :    1.080668
   8 C :   -0.794117
   9 C :   -0.630833
  10 C :   -0.011210
  11 C :   -0.637873
  12 C :   -0.071188
  13 O :   -0.204075
  14 O :   -0.323486
  15 H :    0.167948
  16 H :    0.175503
  17 H :    0.175404
  18 H :    0.167347
  19 H :    0.173065
  20 H :    0.168533
  21 H :    0.168641
  22 H :    0.179923
  23 H :    0.192470
  24 H :    0.158848
  25 H :    0.161396
  26 H :    0.174710
  27 H :    0.157679
  28 H :    0.223217
  29 H :    0.186690
  30 H :    0.185356
  31 H :    0.185797
  32 H :    0.338379
Sum of atomic charges:    0.0000000

--------------------------------
MULLIKEN REDUCED ORBITAL CHARGES
--------------------------------
  0 C s       :     3.570954  s :     3.570954
      pz      :     1.025190  p :     3.158443
      px      :     1.102333
      py      :     1.030920
      dz2     :     0.012153  d :     0.041366
      dxz     :     0.005064
      dyz     :     0.007306
      dx2y2   :     0.011838
      dxy     :     0.005005

  1 C s       :     2.584256  s :     2.584256
      pz      :     0.868698  p :     2.714133
      px      :     0.828122
      py      :     1.017313
      dz2     :     0.017025  d :     0.069958
      dxz     :     0.013397
      dyz     :     0.012402
      dx2y2   :     0.014815
      dxy     :     0.012320

  2 C s       :     3.646500  s :     3.646500
      pz      :     1.115834  p :     3.158957
      px      :     0.952097
      py      :     1.091026
      dz2     :     0.007259  d :     0.041450
      dxz     :     0.008323
      dyz     :     0.007735
      dx2y2   :     0.007580
      dxy     :     0.010553

  3 C s       :     4.136922  s :     4.136922
      pz      :     1.053680  p :     2.978763
      px      :     0.771352
      py      :     1.153732
      dz2     :     0.011209  d :     0.054349
      dxz     :     0.010835
      dyz     :     0.010843
      dx2y2   :     0.011980
      dxy     :     0.009483

  4 C s       :     1.848468  s :     1.848468
      pz      :     0.879845  p :     2.180812
      px      :     0.638911
      py      :     0.662056
      dz2     :     0.004131  d :     0.070219
      dxz     :     0.009907
      dyz     :     0.010271
      dx2y2   :     0.022816
      dxy     :     0.023095

  5 C s       :     3.652750  s :     3.652750
      pz      :     0.999117  p :     3.157510
      px      :     1.093590
      py      :     1.064803
      dz2     :     0.003572  d :     0.053968
      dxz     :     0.008999
      dyz     :     0.004590
      dx2y2   :     0.017715
      dxy     :     0.019092

  6 C s       :     3.527719  s :     3.527719
      pz      :     1.001118  p :     3.046716
      px      :     1.048430
      py      :     0.997168
      dz2     :     0.003628  d :     0.054575
      dxz     :     0.008676
      dyz     :     0.005578
      dx2y2   :     0.015886
      dxy     :     0.020807

  7 C s       :     2.408366  s :     2.408366
      pz      :     1.045077  p :     2.442097
      px      :     0.774220
      py      :     0.622800
      dz2     :     0.004328  d :     0.068870
      dxz     :     0.008558
      dyz     :     0.010843
      dx2y2   :     0.023366
      dxy     :     0.021775

  8 C s       :     3.582156  s :     3.582156
      pz      :     0.999180  p :     3.157474
      px      :     1.182988
      py      :     0.975305
      dz2     :     0.003605  d :     0.054488
      dxz     :     0.009772
      dyz     :     0.004669
      dx2y2   :     0.017240
      dxy     :     0.019201

  9 C s       :     3.576350  s :     3.576350
      pz      :     0.965571  p :     2.999961
      px      :     0.972123
      py      :     1.062268
      dz2     :     0.003669  d :     0.054522
      dxz     :     0.008234
      dyz     :     0.005399
      dx2y2   :     0.016328
      dxy     :     0.020893

 10 C s       :     3.072705  s :     3.072705
      pz      :     0.758298  p :     2.873127
      px      :     0.985232
      py      :     1.129598
      dz2     :     0.013549  d :     0.065378
      dxz     :     0.016165
      dyz     :     0.011031
      dx2y2   :     0.013235
      dxy     :     0.011398

 11 C s       :     3.480898  s :     3.480898
      pz      :     0.915392  p :     3.115754
      px      :     1.127126
      py      :     1.073236
      dz2     :     0.010716  d :     0.041222
      dxz     :     0.006233
      dyz     :     0.009053
      dx2y2   :     0.011244
      dxy     :     0.003975

 12 C s       :     3.369789  s :     3.369789
      pz      :     0.852582  p :     2.509705
      px      :     0.805728
      py      :     0.851395
      dz2     :     0.031293  d :     0.191694
      dxz     :     0.072591
      dyz     :     0.017213
      dx2y2   :     0.027280
      dxy     :     0.043316

 13 O s       :     3.699104  s :     3.699104
      pz      :     1.494447  p :     4.493306
      px      :     1.321127
      py      :     1.677732
      dz2     :     0.003604  d :     0.011665
      dxz     :     0.002236
      dyz     :     0.002212
      dx2y2   :     0.002005
      dxy     :     0.001608

 14 O s       :     3.880594  s :     3.880594
      pz      :     1.713551  p :     4.428093
      px      :     1.242965
      py      :     1.471577
      dz2     :     0.001874  d :     0.014799
      dxz     :     0.003316
      dyz     :     0.000184
      dx2y2   :     0.005183
      dxy     :     0.004242

 15 H s       :     0.809589  s :     0.809589
      pz      :     0.010241  p :     0.022463
      px      :     0.006140
      py      :     0.006082

 16 H s       :     0.802364  s :     0.802364
      pz      :     0.005023  p :     0.022132
      px      :     0.006207
      py      :     0.010902

 17 H s       :     0.801762  s :     0.801762
      pz      :     0.005293  p :     0.022835
      px      :     0.012121
      py      :     0.005420

 18 H s       :     0.811833  s :     0.811833
      pz      :     0.004663  p :     0.020821
      px      :     0.005686
      py      :     0.010472

 19 H s       :     0.804590  s :     0.804590
      pz      :     0.005602  p :     0.022345
      px      :     0.006166
      py      :     0.010577

 20 H s       :     0.808933  s :     0.808933
      pz      :     0.010395  p :     0.022534
      px      :     0.005781
      py      :     0.006358

 21 H s       :     0.808762  s :     0.808762
      pz      :     0.009005  p :     0.022597
      px      :     0.005666
      py      :     0.007926

 22 H s       :     0.798472  s :     0.798472
      pz      :     0.004929  p :     0.021605
      px      :     0.005965
      py      :     0.010711

 23 H s       :     0.785436  s :     0.785436
      pz      :     0.008819  p :     0.022094
      px      :     0.005629
      py      :     0.007646

 24 H s       :     0.816230  s :     0.816230
      pz      :     0.006215  p :     0.024922
      px      :     0.006355
      py      :     0.012352

 25 H s       :     0.813622  s :     0.813622
      pz      :     0.006152  p :     0.024982
      px      :     0.007474
      py      :     0.011356

 26 H s       :     0.800527  s :     0.800527
      pz      :     0.006079  p :     0.024763
      px      :     0.006286
      py      :     0.012398

 27 H s       :     0.817434  s :     0.817434
      pz      :     0.006166  p :     0.024887
      px      :     0.007563
      py      :     0.011158

 28 H s       :     0.754504  s :     0.754504
      pz      :     0.004803  p :     0.022278
      px      :     0.005584
      py      :     0.011891

 29 H s       :     0.790906  s :     0.790906
      pz      :     0.004849  p :     0.022404
      px      :     0.006149
      py      :     0.011406

 30 H s       :     0.792257  s :     0.792257
      pz      :     0.008937  p :     0.022387
      px      :     0.006333
      py      :     0.007117

 31 H s       :     0.791540  s :     0.791540
      pz      :     0.004965  p :     0.022663
      px      :     0.012280
      py      :     0.005418

 32 H s       :     0.597031  s :     0.597031
      pz      :     0.015510  p :     0.064590
      px      :     0.031167
      py      :     0.017913



                     *******************************
                     * LOEWDIN POPULATION ANALYSIS *
                     *******************************

----------------------
LOEWDIN ATOMIC CHARGES
----------------------
   0 C :   -0.137533
   1 C :   -0.177852
   2 C :   -0.141921
   3 C :   -0.119476
   4 C :   -0.116358
   5 C :   -0.067287
   6 C :   -0.056745
   7 C :   -0.140221
   8 C :   -0.071033
   9 C :   -0.069938
  10 C :   -0.125998
  11 C :   -0.096127
  12 C :   -0.016563
  13 O :   -0.037466
  14 O :   -0.214756
  15 H :    0.067200
  16 H :    0.076638
  17 H :    0.074587
  18 H :    0.082192
  19 H :    0.071666
  20 H :    0.066318
  21 H :    0.066026
  22 H :    0.093291
  23 H :    0.093631
  24 H :    0.096512
  25 H :    0.095228
  26 H :    0.101968
  27 H :    0.094994
  28 H :    0.121462
  29 H :    0.082483
  30 H :    0.079736
  31 H :    0.076169
  32 H :    0.149171

-------------------------------
LOEWDIN REDUCED ORBITAL CHARGES
-------------------------------
  0 C s       :     2.799727  s :     2.799727
      pz      :     1.075140  p :     3.245012
      px      :     1.088754
      py      :     1.081119
      dz2     :     0.026505  d :     0.092793
      dxz     :     0.011636
      dyz     :     0.018848
      dx2y2   :     0.024863
      dxy     :     0.010941

  1 C s       :     2.801615  s :     2.801615
      pz      :     1.067035  p :     3.219401
      px      :     1.076871
      py      :     1.075495
      dz2     :     0.039113  d :     0.156836
      dxz     :     0.028810
      dyz     :     0.030041
      dx2y2   :     0.034093
      dxy     :     0.024779

  2 C s       :     2.806969  s :     2.806969
      pz      :     1.095183  p :     3.241841
      px      :     1.056095
      py      :     1.090563
      dz2     :     0.016738  d :     0.093112
      dxz     :     0.017768
      dyz     :     0.016029
      dx2y2   :     0.020280
      dxy     :     0.022296

  3 C s       :     2.787204  s :     2.787204
      pz      :     1.070783  p :     3.208707
      px      :     1.049576
      py      :     1.088347
      dz2     :     0.026781  d :     0.123565
      dxz     :     0.023781
      dyz     :     0.023363
      dx2y2   :     0.028812
      dxy     :     0.020828

  4 C s       :     2.789370  s :     2.789370
      pz      :     0.933774  p :     3.162815
      px      :     1.093369
      py      :     1.135672
      dz2     :     0.010987  d :     0.164173
      dxz     :     0.019319
      dyz     :     0.020917
      dx2y2   :     0.056679
      dxy     :     0.056270

  5 C s       :     2.787833  s :     2.787833
      pz      :     0.967790  p :     3.150060
      px      :     1.106833
      py      :     1.075437
      dz2     :     0.008494  d :     0.129394
      dxz     :     0.018203
      dyz     :     0.008479
      dx2y2   :     0.046291
      dxy     :     0.047927

  6 C s       :     2.789842  s :     2.789842
      pz      :     0.959357  p :     3.136154
      px      :     1.103306
      py      :     1.073491
      dz2     :     0.008540  d :     0.130750
      dxz     :     0.017528
      dyz     :     0.011177
      dx2y2   :     0.042833
      dxy     :     0.050671

  7 C s       :     2.787813  s :     2.787813
      pz      :     0.977301  p :     3.190263
      px      :     1.071377
      py      :     1.141586
      dz2     :     0.011262  d :     0.162144
      dxz     :     0.017263
      dyz     :     0.021941
      dx2y2   :     0.057642
      dxy     :     0.054036

  8 C s       :     2.786832  s :     2.786832
      pz      :     0.967724  p :     3.153525
      px      :     1.112720
      py      :     1.073081
      dz2     :     0.008553  d :     0.130676
      dxz     :     0.019875
      dyz     :     0.008989
      dx2y2   :     0.044991
      dxy     :     0.048268

  9 C s       :     2.790234  s :     2.790234
      pz      :     0.969351  p :     3.148996
      px      :     1.102477
      py      :     1.077168
      dz2     :     0.008609  d :     0.130708
      dxz     :     0.016814
      dyz     :     0.010449
      dx2y2   :     0.043985
      dxy     :     0.050850

 10 C s       :     2.780378  s :     2.780378
      pz      :     1.059472  p :     3.195487
      px      :     1.054235
      py      :     1.081780
      dz2     :     0.032087  d :     0.150133
      dxz     :     0.035418
      dyz     :     0.026566
      dx2y2   :     0.031934
      dxy     :     0.024127

 11 C s       :     2.794142  s :     2.794142
      pz      :     1.033307  p :     3.209871
      px      :     1.092769
      py      :     1.083795
      dz2     :     0.025684  d :     0.092113
      dxz     :     0.014302
      dyz     :     0.021050
      dx2y2   :     0.022931
      dxy     :     0.008146

 12 C s       :     2.779513  s :     2.779513
      pz      :     0.959148  p :     2.826101
      px      :     1.036527
      py      :     0.830426
      dz2     :     0.070709  d :     0.410950
      dxz     :     0.149729
      dyz     :     0.036753
      dx2y2   :     0.068797
      dxy     :     0.084962

 13 O s       :     3.386268  s :     3.386268
      pz      :     1.586739  p :     4.632710
      px      :     1.361966
      py      :     1.684004
      dz2     :     0.005518  d :     0.018488
      dxz     :     0.004374
      dyz     :     0.003020
      dx2y2   :     0.003224
      dxy     :     0.002352

 14 O s       :     3.512028  s :     3.512028
      pz      :     1.702517  p :     4.680046
      px      :     1.482091
      py      :     1.495437
      dz2     :     0.003497  d :     0.022682
      dxz     :     0.004198
      dyz     :     0.000215
      dx2y2   :     0.009351
      dxy     :     0.005422

 15 H s       :     0.862745  s :     0.862745
      pz      :     0.034912  p :     0.070055
      px      :     0.017299
      py      :     0.017843

 16 H s       :     0.853202  s :     0.853202
      pz      :     0.014158  p :     0.070160
      px      :     0.017819
      py      :     0.038184

 17 H s       :     0.854065  s :     0.854065
      pz      :     0.014676  p :     0.071348
      px      :     0.042332
      py      :     0.014340

 18 H s       :     0.845472  s :     0.845472
      pz      :     0.015282  p :     0.072335
      px      :     0.018970
      py      :     0.038083

 19 H s       :     0.858079  s :     0.858079
      pz      :     0.014719  p :     0.070255
      px      :     0.019519
      py      :     0.036017

 20 H s       :     0.863687  s :     0.863687
      pz      :     0.034851  p :     0.069995
      px      :     0.017275
      py      :     0.017870

 21 H s       :     0.863870  s :     0.863870
      pz      :     0.028856  p :     0.070104
      px      :     0.016783
      py      :     0.024465

 22 H s       :     0.836708  s :     0.836708
      pz      :     0.015058  p :     0.070001
      px      :     0.017633
      py      :     0.037309

 23 H s       :     0.835091  s :     0.835091
      pz      :     0.030342  p :     0.071278
      px      :     0.016669
      py      :     0.024268

 24 H s       :     0.831704  s :     0.831704
      pz      :     0.015118  p :     0.071784
      px      :     0.018201
      py      :     0.038466

 25 H s       :     0.833323  s :     0.833323
      pz      :     0.014794  p :     0.071450
      px      :     0.021819
      py      :     0.034836

 26 H s       :     0.825967  s :     0.825967
      pz      :     0.015096  p :     0.072065
      px      :     0.017997
      py      :     0.038972

 27 H s       :     0.833884  s :     0.833884
      pz      :     0.014895  p :     0.071122
      px      :     0.021996
      py      :     0.034231

 28 H s       :     0.806234  s :     0.806234
      pz      :     0.014927  p :     0.072304
      px      :     0.016816
      py      :     0.040561

 29 H s       :     0.846808  s :     0.846808
      pz      :     0.013769  p :     0.070709
      px      :     0.017248
      py      :     0.039692

 30 H s       :     0.850375  s :     0.850375
      pz      :     0.029414  p :     0.069889
      px      :     0.018358
      py      :     0.022117

 31 H s       :     0.852814  s :     0.852814
      pz      :     0.013650  p :     0.071017
      px      :     0.043126
      py      :     0.014241

 32 H s       :     0.663501  s :     0.663501
      pz      :     0.035680  p :     0.187327
      px      :     0.104284
      py      :     0.047363



                      *****************************
                      * MAYER POPULATION ANALYSIS *
                      *****************************

  NA   - Mulliken gross atomic population
  ZA   - Total nuclear charge
  QA   - Mulliken gross atomic charge
  VA   - Mayer's total valence
  BVA  - Mayer's bonded valence
  FA   - Mayer's free valence

  ATOM       NA         ZA         QA         VA         BVA        FA
  0 C      6.7708     6.0000    -0.7708     3.6517     3.6517    -0.0000
  1 C      5.3683     6.0000     0.6317     2.2304     2.2304     0.0000
  2 C      6.8469     6.0000    -0.8469     3.6228     3.6228     0.0000
  3 C      7.1700     6.0000    -1.1700     3.0220     3.0220     0.0000
  4 C      4.0995     6.0000     1.9005     0.4923     0.4923     0.0000
  5 C      6.8642     6.0000    -0.8642     4.3053     4.3053     0.0000
  6 C      6.6290     6.0000    -0.6290     3.1565     3.1565     0.0000
  7 C      4.9193     6.0000     1.0807     2.3859     2.3859    -0.0000
  8 C      6.7941     6.0000    -0.7941     4.7243     4.7243     0.0000
  9 C      6.6308     6.0000    -0.6308     3.8920     3.8920    -0.0000
 10 C      6.0112     6.0000    -0.0112     2.8665     2.8665     0.0000
 11 C      6.6379     6.0000    -0.6379     3.5639     3.5639     0.0000
 12 C      6.0712     6.0000    -0.0712     4.1299     4.1299     0.0000
 13 O      8.2041     8.0000    -0.2041     2.1073     2.1073     0.0000
 14 O      8.3235     8.0000    -0.3235     1.9274     1.9274    -0.0000
 15 H      0.8321     1.0000     0.1679     0.9422     0.9422     0.0000
 16 H      0.8245     1.0000     0.1755     0.9426     0.9426    -0.0000
 17 H      0.8246     1.0000     0.1754     0.9479     0.9479    -0.0000
 18 H      0.8327     1.0000     0.1673     0.9622     0.9622     0.0000
 19 H      0.8269     1.0000     0.1731     0.9428     0.9428    -0.0000
 20 H      0.8315     1.0000     0.1685     0.9389     0.9389    -0.0000
 21 H      0.8314     1.0000     0.1686     0.9380     0.9380     0.0000
 22 H      0.8201     1.0000     0.1799     0.9444     0.9444     0.0000
 23 H      0.8075     1.0000     0.1925     0.9335     0.9335     0.0000
 24 H      0.8412     1.0000     0.1588     0.9625     0.9625     0.0000
 25 H      0.8386     1.0000     0.1614     0.9574     0.9574     0.0000
 26 H      0.8253     1.0000     0.1747     0.9551     0.9551     0.0000
 27 H      0.8423     1.0000     0.1577     0.9594     0.9594    -0.0000
 28 H      0.7768     1.0000     0.2232     0.9437     0.9437     0.0000
 29 H      0.8133     1.0000     0.1867     0.9434     0.9434     0.0000
 30 H      0.8146     1.0000     0.1854     0.9411     0.9411     0.0000
 31 H      0.8142     1.0000     0.1858     0.9397     0.9397     0.0000
 32 H      0.6616     1.0000     0.3384     0.9422     0.9422     0.0000

  Mayer bond orders larger than 0.100000
B(  0-C ,  1-C ) :   0.6478 B(  0-C ,  2-C ) :  -0.1088 B(  0-C ,  5-C ) :   0.1503 
B(  0-C , 15-H ) :   1.0049 B(  0-C , 16-H ) :   0.9972 B(  0-C , 17-H ) :   0.9903 
B(  1-C ,  2-C ) :   0.5192 B(  1-C ,  3-C ) :   0.5399 B(  1-C ,  9-C ) :  -0.1040 
B(  1-C , 18-H ) :   0.9390 B(  2-C ,  3-C ) :   0.3763 B(  2-C ,  4-C ) :  -0.3319 
B(  2-C , 19-H ) :   1.0201 B(  2-C , 20-H ) :   0.9993 B(  2-C , 21-H ) :   0.9956 
B(  3-C ,  4-C ) :  -0.7714 B(  3-C ,  5-C ) :   0.4491 B(  3-C ,  6-C ) :   0.1135 
B(  3-C ,  7-C ) :  -0.1490 B(  3-C ,  8-C ) :   0.1352 B(  3-C , 22-H ) :   1.2078 
B(  3-C , 23-H ) :   1.1030 B(  4-C ,  5-C ) :   0.7893 B(  4-C ,  7-C ) :   0.6178 
B(  4-C ,  8-C ) :  -0.3351 B(  4-C ,  9-C ) :   1.2982 B(  4-C , 10-C ) :  -0.1208 
B(  4-C , 18-H ) :  -0.1435 B(  4-C , 22-H ) :  -0.4040 B(  4-C , 23-H ) :  -0.1646 
B(  5-C ,  6-C ) :   1.0692 B(  5-C ,  7-C ) :  -0.1575 B(  5-C ,  8-C ) :  -0.1190 
[...]
      px      :     1.093753
      py      :     1.136463
      dz2     :     0.010541  d :     0.161730
      dxz     :     0.018882
      dyz     :     0.020058
      dx2y2   :     0.055501
      dxy     :     0.056748

  5 C s       :     2.792853  s :     2.792853
      pz      :     0.967209  p :     3.147421
      px      :     1.105748
      py      :     1.074464
      dz2     :     0.008390  d :     0.127825
      dxz     :     0.017973
      dyz     :     0.007986
      dx2y2   :     0.045829
      dxy     :     0.047647

  6 C s       :     2.793600  s :     2.793600
      pz      :     0.963166  p :     3.140564
      px      :     1.103009
      py      :     1.074389
      dz2     :     0.008460  d :     0.129802
      dxz     :     0.017109
      dyz     :     0.010939
      dx2y2   :     0.042135
      dxy     :     0.051159

  7 C s       :     2.790145  s :     2.790145
      pz      :     0.978516  p :     3.189486
      px      :     1.068667
      py      :     1.142303
      dz2     :     0.011007  d :     0.161585
      dxz     :     0.016424
      dyz     :     0.021632
      dx2y2   :     0.057435
      dxy     :     0.055087

  8 C s       :     2.789004  s :     2.789004
      pz      :     0.962992  p :     3.145053
      px      :     1.108955
      py      :     1.073105
      dz2     :     0.008438  d :     0.128871
      dxz     :     0.018959
      dyz     :     0.008633
      dx2y2   :     0.044459
      dxy     :     0.048382

  9 C s       :     2.794585  s :     2.794585
      pz      :     0.968715  p :     3.147122
      px      :     1.101443
      py      :     1.076964
      dz2     :     0.008458  d :     0.128466
      dxz     :     0.016215
      dyz     :     0.009991
      dx2y2   :     0.042954
      dxy     :     0.050849

 10 C s       :     2.785266  s :     2.785266
      pz      :     1.059543  p :     3.196512
      px      :     1.055558
      py      :     1.081411
      dz2     :     0.034328  d :     0.149978
      dxz     :     0.034359
      dyz     :     0.029378
      dx2y2   :     0.029593
      dxy     :     0.022320

 11 C s       :     2.799312  s :     2.799312
      pz      :     1.040659  p :     3.212617
      px      :     1.086988
      py      :     1.084970
      dz2     :     0.023954  d :     0.089624
      dxz     :     0.013440
      dyz     :     0.021458
      dx2y2   :     0.022236
      dxy     :     0.008537

 12 C s       :     2.783294  s :     2.783294
      pz      :     0.987669  p :     2.832462
      px      :     0.940175
      py      :     0.904617
      dz2     :     0.084872  d :     0.407812
      dxz     :     0.111698
      dyz     :     0.086062
      dx2y2   :     0.065498
      dxy     :     0.059683

 13 O s       :     3.404302  s :     3.404302
      pz      :     1.543225  p :     4.623421
      px      :     1.485019
      py      :     1.595176
      dz2     :     0.007985  d :     0.018795
      dxz     :     0.003884
      dyz     :     0.002508
      dx2y2   :     0.000568
      dxy     :     0.003849

 14 O s       :     3.507488  s :     3.507488
      pz      :     1.755660  p :     4.675835
      px      :     1.462950
      py      :     1.457226
      dz2     :     0.003528  d :     0.022930
      dxz     :     0.002622
      dyz     :     0.001896
      dx2y2   :     0.004832
      dxy     :     0.010053

 15 H s       :     0.862570  s :     0.862570
      pz      :     0.035883  p :     0.069016
      px      :     0.016854
      py      :     0.016279

 16 H s       :     0.853242  s :     0.853242
      pz      :     0.014577  p :     0.068824
      px      :     0.018946
      py      :     0.035301

 17 H s       :     0.854025  s :     0.854025
      pz      :     0.014101  p :     0.070088
      px      :     0.041451
      py      :     0.014535

 18 H s       :     0.844895  s :     0.844895
      pz      :     0.015715  p :     0.070493
      px      :     0.020017
      py      :     0.034761

 19 H s       :     0.857024  s :     0.857024
      pz      :     0.015365  p :     0.068979
      px      :     0.020576
      py      :     0.033039

 20 H s       :     0.863274  s :     0.863274
      pz      :     0.035422  p :     0.068989
      px      :     0.017215
      py      :     0.016351

 21 H s       :     0.862920  s :     0.862920
      pz      :     0.026782  p :     0.068945
      px      :     0.014951
      py      :     0.027212

 22 H s       :     0.835046  s :     0.835046
      pz      :     0.015627  p :     0.069185
      px      :     0.017729
      py      :     0.035829

 23 H s       :     0.835327  s :     0.835327
      pz      :     0.027502  p :     0.069887
      px      :     0.015886
      py      :     0.026499

 24 H s       :     0.831624  s :     0.831624
      pz      :     0.014501  p :     0.070566
      px      :     0.017648
      py      :     0.038417

 25 H s       :     0.831312  s :     0.831312
      pz      :     0.014354  p :     0.070585
      px      :     0.022124
      py      :     0.034106

 26 H s       :     0.825333  s :     0.825333
      pz      :     0.014359  p :     0.070788
      px      :     0.017641
      py      :     0.038789

 27 H s       :     0.832746  s :     0.832746
      pz      :     0.014388  p :     0.070402
      px      :     0.022052
      py      :     0.033962

 28 H s       :     0.803302  s :     0.803302
      pz      :     0.014282  p :     0.071510
      px      :     0.017290
      py      :     0.039938

 29 H s       :     0.845811  s :     0.845811
      pz      :     0.013744  p :     0.069553
      px      :     0.016790
      py      :     0.039018

 30 H s       :     0.850235  s :     0.850235
      pz      :     0.028898  p :     0.069206
      px      :     0.017199
      py      :     0.023110

 31 H s       :     0.852329  s :     0.852329
      pz      :     0.013192  p :     0.069894
      px      :     0.042968
      py      :     0.013734

 32 H s       :     0.663822  s :     0.663822
      pz      :     0.033408  p :     0.182967
      px      :     0.081770
      py      :     0.067789



                      *****************************
                      * MAYER POPULATION ANALYSIS *
                      *****************************

  NA   - Mulliken gross atomic population
  ZA   - Total nuclear charge
  QA   - Mulliken gross atomic charge
  VA   - Mayer's total valence
  BVA  - Mayer's bonded valence
  FA   - Mayer's free valence

  ATOM       NA         ZA         QA         VA         BVA        FA
  0 C      6.7603     6.0000    -0.7603     3.6108     3.6108    -0.0000
  1 C      5.4722     6.0000     0.5278     2.4543     2.4543     0.0000
  2 C      6.8498     6.0000    -0.8498     3.6342     3.6342     0.0000
  3 C      7.2325     6.0000    -1.2325     3.0240     3.0240    -0.0000
  4 C      4.0891     6.0000     1.9109     0.2452     0.2452     0.0000
  5 C      6.6229     6.0000    -0.6229     4.3561     4.3561    -0.0000
  6 C      6.5698     6.0000    -0.5698     3.3156     3.3156     0.0000
  7 C      5.0036     6.0000     0.9964     2.6090     2.6090    -0.0000
  8 C      6.7918     6.0000    -0.7918     4.8011     4.8011     0.0000
  9 C      6.6673     6.0000    -0.6673     3.8944     3.8944    -0.0000
 10 C      5.9888     6.0000     0.0112     2.9679     2.9679     0.0000
 11 C      6.7175     6.0000    -0.7175     3.7516     3.7516     0.0000
 12 C      6.0821     6.0000    -0.0821     4.2331     4.2331     0.0000
 13 O      8.1662     8.0000    -0.1662     2.0361     2.0361    -0.0000
 14 O      8.3332     8.0000    -0.3332     2.0167     2.0167     0.0000
 15 H      0.8299     1.0000     0.1701     0.9412     0.9412     0.0000
 16 H      0.8251     1.0000     0.1749     0.9420     0.9420    -0.0000
 17 H      0.8234     1.0000     0.1766     0.9421     0.9421    -0.0000
 18 H      0.8339     1.0000     0.1661     0.9622     0.9622    -0.0000
 19 H      0.8262     1.0000     0.1738     0.9419     0.9419     0.0000
 20 H      0.8298     1.0000     0.1702     0.9385     0.9385     0.0000
 21 H      0.8306     1.0000     0.1694     0.9385     0.9385     0.0000
 22 H      0.8192     1.0000     0.1808     0.9476     0.9476     0.0000
 23 H      0.8143     1.0000     0.1857     0.9372     0.9372    -0.0000
 24 H      0.8413     1.0000     0.1587     0.9626     0.9626     0.0000
 25 H      0.8369     1.0000     0.1631     0.9579     0.9579    -0.0000
 26 H      0.8292     1.0000     0.1708     0.9583     0.9583     0.0000
 27 H      0.8422     1.0000     0.1578     0.9607     0.9607    -0.0000
 28 H      0.7663     1.0000     0.2337     0.9327     0.9327     0.0000
 29 H      0.8024     1.0000     0.1976     0.9393     0.9393     0.0000
 30 H      0.8168     1.0000     0.1832     0.9407     0.9407    -0.0000
 31 H      0.8150     1.0000     0.1850     0.9355     0.9355    -0.0000
 32 H      0.6706     1.0000     0.3294     0.9474     0.9474    -0.0000

  Mayer bond orders larger than 0.100000
B(  0-C ,  1-C ) :   0.6852 B(  0-C ,  2-C ) :  -0.1096 B(  0-C , 15-H ) :   1.0034 
B(  0-C , 16-H ) :   0.9959 B(  0-C , 17-H ) :   0.9900 B(  1-C ,  2-C ) :   0.5026 
B(  1-C ,  3-C ) :   0.6506 B(  1-C ,  5-C ) :   0.1384 B(  1-C , 18-H ) :   0.9474 
B(  2-C ,  3-C ) :   0.4340 B(  2-C ,  4-C ) :  -0.3925 B(  2-C ,  5-C ) :   0.1069 
B(  2-C , 19-H ) :   1.0241 B(  2-C , 20-H ) :   0.9979 B(  2-C , 21-H ) :   0.9921 
B(  3-C ,  4-C ) :  -0.9857 B(  3-C ,  5-C ) :   0.3120 B(  3-C ,  6-C ) :   0.1230 
B(  3-C ,  7-C ) :  -0.2468 B(  3-C ,  8-C ) :   0.2034 B(  3-C , 22-H ) :   1.2522 
B(  3-C , 23-H ) :   1.0887 B(  4-C ,  5-C ) :   1.1121 B(  4-C ,  7-C ) :   0.6924 
B(  4-C ,  8-C ) :  -0.3540 B(  4-C ,  9-C ) :   1.1155 B(  4-C , 10-C ) :  -0.1812 
B(  4-C , 18-H ) :  -0.1383 B(  4-C , 22-H ) :  -0.4689 B(  4-C , 23-H ) :  -0.1965 
B(  5-C ,  6-C ) :   1.1455 B(  5-C ,  9-C ) :   0.5398 B(  5-C , 24-H ) :   0.9650 
B(  6-C ,  7-C ) :   1.2221 B(  6-C ,  8-C ) :   0.4744 B(  6-C ,  9-C ) :  -0.3267 
B(  6-C , 12-C ) :  -0.1765 B(  6-C , 13-O ) :  -0.1578 B(  6-C , 25-H ) :   0.9593 
B(  6-C , 28-H ) :   0.1496 B(  7-C ,  8-C ) :   1.3835 B(  7-C , 10-C ) :   0.2254 
B(  7-C , 11-C ) :  -0.3914 B(  7-C , 12-C ) :  -0.3959 B(  7-C , 13-O ) :   0.3777 
B(  7-C , 28-H ) :  -0.3037 B(  7-C , 29-H ) :  -0.1484 B(  7-C , 32-H ) :   0.1728 
B(  8-C ,  9-C ) :   1.2230 B(  8-C , 10-C ) :   0.1266 B(  8-C , 11-C ) :   0.3814 
B(  8-C , 12-C ) :   0.5744 B(  8-C , 14-O ) :  -0.1654 B(  8-C , 26-H ) :   0.9107 
B(  9-C , 10-C ) :   0.2437 B(  9-C , 22-H ) :   0.2182 B(  9-C , 27-H ) :   0.9529 
B( 10-C , 11-C ) :   0.8855 B( 10-C , 12-C ) :   0.8459 B( 10-C , 13-O ) :  -0.2815 
B( 10-C , 28-H ) :   1.0345 B( 11-C , 29-H ) :   0.9595 B( 11-C , 30-H ) :   0.9933 
B( 11-C , 31-H ) :   0.9832 B( 12-C , 13-O ) :   1.3608 B( 12-C , 14-O ) :   2.0502 
B( 13-O , 32-H ) :   0.8313 

-------
TIMINGS
-------

Total SCF time: 0 days 0 hours 0 min 34 sec 

Total time                  ....      34.437 sec
Sum of individual times     ....      34.398 sec  ( 99.9%)

SCF preparation             ....       0.282 sec  (  0.8%)
Fock matrix formation       ....      33.682 sec  ( 97.8%)
  Startup                   ....       0.017 sec  (  0.1% of F)
  Split-RI-J                ....       7.484 sec  ( 22.2% of F)
  XC integration            ....      13.915 sec  ( 41.3% of F)
    Basis function eval.    ....       3.452 sec  ( 24.8% of XC)
    Density eval.           ....       4.041 sec  ( 29.0% of XC)
    XC-Functional eval.     ....       0.218 sec  (  1.6% of XC)
    XC-Potential eval.      ....       5.826 sec  ( 41.9% of XC)
  CPCM terms                ....      12.195 sec  ( 36.2% of F)
Diagonalization             ....       0.000 sec  (  0.0%)
Density matrix formation    ....       0.042 sec  (  0.1%)
Total Energy calculation    ....       0.026 sec  (  0.1%)
Population analysis         ....       0.050 sec  (  0.1%)
Orbital Transformation      ....       0.055 sec  (  0.2%)
Orbital Orthonormalization  ....       0.000 sec  (  0.0%)
DIIS solution               ....       0.094 sec  (  0.3%)
SOSCF solution              ....       0.167 sec  (  0.5%)
Finished LeanSCF after  34.5 sec

Maximum memory used throughout the entire LEANSCF-calculation: 93.7 MB

-------------------------   --------------------
FINAL SINGLE POINT ENERGY      -656.060162247607
-------------------------   --------------------

                                *** OPTIMIZATION RUN DONE ***


------------------------------------------------------------------------------
                              ORCA PROPERTY CALCULATIONS
------------------------------------------------------------------------------

GBWName                                 ... Ibuprofen\Ibuprofen_PBE_6-311+G\Ibuprofen_PBE_6-311+G.orcainp.gbw
Number of atoms                         ...     33
Number of basis functions               ...    438
Max core memory                         ...   1024 MB

Electric properties:
Dipole moment                           ... YES
Quadrupole moment                       ...  NO
Static polarizability (Dipole/Dipole)   ...  NO
Static polarizability (Dipole/Quad.)    ...  NO
Static polarizability (Quad./Quad.)     ...  NO
Static polarizability (Velocity)        ...  NO

Atomic electric properties:
Dipole moment                           ...  NO
Quadrupole moment                       ...  NO
Static polarizability                   ...  NO

Choice of electric origin               ... Center of mass
Position of electric origin             ...    11.688236    -0.577013    -1.480223

General magnetic properties:
Magnetizability                         ...  NO

EPR properties:
g-Tensor (aka g-matrix)                 ...  NO
Zero-Field splitting spin-orbit         ...  NO
Zero-field splitting spin-spin          ...  NO
Hyperfine couplings                     ...  NO (   0 nuclei)
Quadrupole couplings                    ...  NO (   0 nuclei)
Contact density                         ...  NO (   0 nuclei)

NMR properties:
Chemical shifts                         ...  NO (   0 nuclei)
Spin-rotation constants                 ...  NO (   0 nuclei)
Spin-spin couplings                     ...  NO (   0 nuclei,    0 pairs)

Choice of magnetic origin               ... GIAO
Position of magnetic origin             ...     0.000000     0.000000     0.000000

Properties with geometric perturbations:
SCF Hessian                             ...  NO
IR spectrum                             ...  NO
VCD spectrum                            ...  NO
X-ray spectroscopy properties:
SCF XES/XAS/RIXS spectra                ...  NO


-------------
DIPOLE MOMENT
-------------

Method             : SCF
Type of density    : Electron Density
Multiplicity       :   1
Irrep              :   0
Energy             :  -656.0601622476070816 Eh
Relativity type    : 
Basis              : AO
                                X                 Y                 Z
Electronic contribution:     19.149610866       2.994426584      -0.643812973
Nuclear contribution   :    -21.141306442      -4.572891760       0.033096750
                        -----------------------------------------
Total Dipole Moment    :     -1.991695576      -1.578465175      -0.610716223
                        -----------------------------------------
Magnitude (a.u.)       :      2.613690472
Magnitude (Debye)      :      6.643473213



--------------------
Rotational spectrum 
--------------------
 
Rotational constants in cm-1:             0.048060             0.008453             0.007954 
Rotational constants in MHz :          1440.795442           253.414787           238.468779 

Dipole components along the rotational axes: 
x,y,z [a.u.] :     2.168744    -1.186946     0.847990 
x,y,z [Debye]:     5.512509    -3.016976     2.155420 

 

Dipole moment calculation done in   0.0 sec 

Maximum memory used throughout the entire PROP-calculation: 36.2 MB

--------------------------------
SUGGESTED CITATIONS FOR THIS RUN
--------------------------------

Below you find a list of papers that are relevant to this ORCA run
We neither can nor want to force you to cite these papers, but we appreciate if you do
You receive ORCA, which is the product of decades of hard work by many enthusiastic individuals, for free
The only thing we kindly ask in return is that you cite our papers,
We deeply appreciate it, if you show your appreciation for ORCA by not just citing the generic ORCA reference.

Please note that relegating all ORCA citations to the supporting information does *not* help us.
SI sections are not indexed - citations you put there will not count into any citation statistics
But we need these citations in order to attract the funding resources that allow us to do what we are doing

Therefore, if you are a happy ORCA user, please consider citing a few of the papers listed below in the main body of your paper

In addition to the list printed below, the program has created the file Ibuprofen\Ibuprofen_PBE_6-311+G\Ibuprofen_PBE_6-311+G.orcainp.bibtex that contains the list in bibtex format
You can import this file easily into all common literature databanks and citation aid programs


List of essential papers. We consider these as the minimum necessary citations

  1. Neese,F.
     Software update: the ORCA program system, version 5.0
     WIRES Comput. Molec. Sci., 2022 12(1)e1606
     doi.org/10.1002/wcms.1606

List of papers to cite with high priority. The work reported in these papers was absolutely
necessary for this run to complete.
Our perspective: the developers of density functionals and basis sets usually get cited in chemistry papers
Good! But without the algorithms to do something with them, the functionals or basis sets would not do anything.
Hence, in our opinion, the algorithm design and method developments papers are equally worthy of getting cited

  1. Neese,F.
     An improvement of the resolution of the identity approximation for the formation of the Coulomb matrix
     J. Comp. Chem., 2003 24(14)1740-1747
     doi.org/10.1002/jcc.10318
  2. Garcia-Rates,M.; Neese,F.
     Effect of the Solute Cavity on the Solvation Energy and its Derivatives within the Framework of the Gaussian Charge Scheme
     J. Comput. Chem., 2020 41 922-939
     doi.org/10.1002/jcc.26139
  3. Neese,F.
     The SHARK Integral Generation and Digestion System
     J. Comp. Chem., 2022  1-16
     doi.org/10.1002/jcc.26942

List of suggested additional citations. These are papers that are important in the 'surrounding' of 
of this run, or papers that preceded the highly important papers. If you like your results we are grateful for a citation.

  1. Neese,F.
     The ORCA program system
     WIRES Comput. Molec. Sci., 2012 2(1)73-78
     doi.org/10.1002/wcms.81
  2. Neese,F.
     Software update: the ORCA program system, version 4.0
     WIRES Comput. Molec. Sci., 2018 8(1)1-6
     doi.org/10.1002/wcms.1327
  3. Neese,F.; Wennmohs,F.; Becker,U.; Riplinger,C.
     The ORCA quantum chemistry program package
     J. Chem. Phys., 2020 152 Art. No. L224108
     doi.org/10.1063/5.0004608

List of optional additional citations

  1. Neese,F.
     Approximate second-order SCF convergence for spin unrestricted wavefunctions
     Chem. Phys. Lett., 2000 325(1-3)93-98
     doi.org/10.1016/s0009-2614(00)00662-x

Timings for individual modules:

Sum of individual times          ...     1038.575 sec (=  17.310 min)
Startup calculation              ...       19.706 sec (=   0.328 min)   1.9 %
SCF iterations                   ...      677.435 sec (=  11.291 min)  65.2 %
Property calculations            ...        0.106 sec (=   0.002 min)   0.0 %
SCF Gradient evaluation          ...      341.160 sec (=   5.686 min)  32.8 %
Geometry relaxation              ...        0.168 sec (=   0.003 min)   0.0 %
                             ****ORCA TERMINATED NORMALLY****
TOTAL RUN TIME: 0 days 0 hours 17 minutes 20 seconds 200 msec
