
                                 *****************
                                 * O   R   C   A *
                                 *****************

                                            #,                                       
                                            ###                                      
                                            ####                                     
                                            #####                                    
                                            ######                                   
                                           ########,                                 
                                     ,,################,,,,,                         
                               ,,#################################,,                 
                          ,,##########################################,,             
                       ,#########################################, ''#####,          
                    ,#############################################,,   '####,        
                  ,##################################################,,,,####,       
                ,###########''''           ''''###############################       
              ,#####''   ,,,,##########,,,,          '''####'''          '####       
            ,##' ,,,,###########################,,,                        '##       
           ' ,,###''''                  '''############,,,                           
         ,,##''                                '''############,,,,        ,,,,,,###''
      ,#''                                            '''#######################'''  
     '                                                          ''''####''''         
             ,#######,   #######,   ,#######,      ##                                
            ,#'     '#,  ##    ##  ,#'     '#,    #''#        ,####,   ,####,        
            ##       ##  ##   ,#'  ##            #'  '#       #'       #'  '#        
            ##       ##  #######   ##           ,######,      #####,   #    #        
            '#,     ,#'  ##    ##  '#,     ,#' ,#      #,     #,   #   #,  ,#        
             '#######'   ##     ##  '#######'  #'      '#     '####' # '####'        



                #########################################################
                #                        -***-                          #
                #          Department of theory and spectroscopy        #
                #                                                       #
                #                      Frank Neese                      #
                #                                                       #
                #     Directorship, Architecture, Infrastructure        #
                #                    SHARK, DRIVERS                     #
                #        Core code/Algorithms in most modules           #
                #                                                       #
                #        Max Planck Institute fuer Kohlenforschung      #
                #                Kaiser Wilhelm Platz 1                 #
                #                 D-45470 Muelheim/Ruhr                 #
                #                      Germany                          #
                #                                                       #
                #                  All rights reserved                  #
                #                        -***-                          #
                #########################################################


                         Program Version 6.0.0  -   RELEASE   -


 With contributions from (in alphabetic order):
   Daniel Aravena         : Magnetic Suceptibility
   Michael Atanasov       : Ab Initio Ligand Field Theory (pilot matlab implementation)
   Alexander A. Auer      : GIAO ZORA, VPT2 properties, NMR spectrum
   Ute Becker             : All parallelization in ORCA, NUMFREQ, NUMCALC
   Giovanni Bistoni       : ED, misc. LED, open-shell LED, HFLD
   Martin Brehm           : Molecular dynamics
   Dmytro Bykov           : pre 5.0 version of the SCF Hessian
   Marcos Casanova-Páez   : Triplet and SCS-CIS(D). UHF-(DLPNO)-IP/EA/STEOM-CCSD. UHF-CVS-IP/STEOM-CCSD
   Vijay G. Chilkuri      : MRCI spin determinant printing, contributions to CSF-ICE
   Pauline Colinet        : FMM embedding
   Dipayan Datta          : RHF DLPNO-CCSD density
   Achintya Kumar Dutta   : EOM-CC, STEOM-CC
   Nicolas Foglia         : Exact transition moments, OPA infrastructure, MCD improvements
   Dmitry Ganyushin       : Spin-Orbit,Spin-Spin,Magnetic field MRCI
   Miquel Garcia          : C-PCM and meta-GGA Hessian, CCSD/C-PCM, Gaussian charge scheme
   Tiago L. C. Gouveia    : GS-ROHF, GS-ROCIS
   Yang Guo               : DLPNO-NEVPT2, F12-NEVPT2, CIM, IAO-localization
   Andreas Hansen         : Spin unrestricted coupled pair/coupled cluster methods
   Ingolf Harden          : AUTO-CI MPn and infrastructure 
   Benjamin Helmich-Paris : MC-RPA, TRAH-(SCF,CASSCF), AVAS, COSX integrals, SCF dyn. polar.
   Lee Huntington         : MR-EOM, pCC
   Robert Izsak           : Overlap fitted RIJCOSX, COSX-SCS-MP3, EOM
   Riya Kayal             : Wick's Theorem for AUTO-CI, AUTO-CI UHF-CCSDT
   Emily Kempfer          : AUTO-CI, RHF CISDT and CCSDT
   Christian Kollmar      : KDIIS, OOCD, Brueckner-CCSD(T), CCSD density, CASPT2, CASPT2-K, improved NEVPT2
   Axel Koslowski         : Symmetry handling
   Simone Kossmann        : Meta GGA functionals, TD-DFT gradient, OOMP2, (MP2 Hessian; deprecated post 5.0)
   Lucas Lang             : DCDCAS
   Marvin Lechner         : AUTO-CI (C++ implementation), FIC-MRCC
   Spencer Leger          : CASSCF response
   Dagmar Lenk            : GEPOL surface, SMD, ORCA-2-JSON
   Dimitrios Liakos       : Extrapolation schemes; Compound Job, initial MDCI parallelization
   Dimitrios Manganas     : Further ROCIS development; embedding schemes. LFT, Crystal Embedding
   Dimitrios Pantazis     : SARC Basis sets
   Anastasios Papadopoulos: AUTO-CI, single reference methods and gradients
   Taras Petrenko         : pre 6.0 DFT Hessian and TD-DFT gradient, (ASA, deprecated), ECA, 1-Electron XAS/XES, NRVS
   Peter Pinski           : DLPNO-MP2, DLPNO-MP2 Gradient
   Christoph Reimann      : Effective Core Potentials
   Marius Retegan         : Local ZFS, SOC
   Christoph Riplinger    : Optimizer, TS searches, QM/MM, DLPNO-CCSD(T), (RO)-DLPNO pert. Triples
   Michael Roemelt        : Original ROCIS implementation
   Masaaki Saitow         : Open-shell DLPNO-CCSD energy and density
   Barbara Sandhoefer     : DKH picture change effects
   Kantharuban Sivalingam : CASSCF convergence/infrastructure, NEVPT2 and variants, FIC-MRCI
   Bernardo de Souza      : ESD, SOC TD-DFT
   Georgi Stoychev        : AutoAux, RI-MP2 NMR, DLPNO-MP2 response, X2C
   Van Anh Tran           : RI-MP2 g-tensors
   Willem Van den Heuvel  : Paramagnetic NMR
   Zikuan Wang            : NOTCH, Electric field optimization 
   Frank Wennmohs         : Technical directorship and infrastructure
   Hang Xu                : AUTO-CI-Response properties 


 We gratefully acknowledge several colleagues who have allowed us to
 interface, adapt or use parts of their codes:
   Stefan Grimme, W. Hujo, H. Kruse, P. Pracht,  : VdW corrections, initial TS optimization,
                  C. Bannwarth, S. Ehlert,         DFT functionals, gCP, sTDA/sTD-DF
                  L. Wittmann, M. Mueller
   Ed Valeev, F. Pavosevic, A. Kumar             : LibInt (2-el integral package), F12 methods
   Garnet Chan, S. Sharma, J. Yang, R. Olivares  : DMRG
   Ulf Ekstrom                                   : XCFun DFT Library
   Mihaly Kallay                                 : mrcc  (arbitrary order and MRCC methods)
   Frank Weinhold                                : gennbo (NPA and NBO analysis)
   Simon Mueller                                 : openCOSMO-RS
   Christopher J. Cramer and Donald G. Truhlar   : smd solvation model
   Lars Goerigk                                  : TD-DFT with DH, B97 family of functionals
   V. Asgeirsson, H. Jonsson                     : NEB implementation
   FAccTs GmbH                                   : IRC, NEB, NEB-TS, DLPNO-Multilevel, CI-OPT
                                                   MM, QMMM, 2- and 3-layer-ONIOM, Crystal-QMMM,
                                                   LR-CPCM, SF, NACMEs, symmetry and pop. for TD-DFT,
                                                   nearIR, NL-DFT gradient (VV10), updates on ESD,
                                                   ML-optimized integration grids, MBIS, APM,
                                                   GOAT, DOCKER, SOLVATOR, interface openCOSMO-RS
   S Lehtola, MJT Oliveira, MAL Marques          : LibXC Library
   Liviu Ungur et al                             : ANISO software


 Your calculation uses the libint2 library for the computation of 2-el integrals
 For citations please refer to: http://libint.valeyev.net

 Your ORCA version has been built with support for libXC version: 6.2.2
 For citations please refer to: https://libxc.gitlab.io

 This ORCA versions uses:
   CBLAS   interface :  Fast vector & matrix operations
   LAPACKE interface :  Fast linear algebra routines
   Shared memory     :  Shared parallel matrices


Warning: RI is on but no J-basis has been assigned. Assigning Def2/J (nothing to worry about!)
================================================================================

----- Orbital basis set information -----
Your calculation utilizes the basis: STO-3G
   H-Ne       : W. J. Hehre, R. F. Stewart and J. A. Pople, J. Chem. Phys. 2657 (1969).
   Na-Ar      : W. J. Hehre, R. Ditchfield, R. F. Stewart and J. A. Pople, J. Chem. Phys. 2769 (1970).
   K,Ca,Ga-Kr : W. J. Pietro, B. A. Levy, W. J. Hehre and R. F. Stewart, J. Am. Chem. Soc. 19, 2225 (1980).
   Sc-Zn,Y-Cd : W. J. Pietro and W. J. Hehre, J. Comp. Chem. 4, 241 (1983).

----- AuxJ basis set information -----
Your calculation utilizes the auxiliary basis: def2/J
   F. Weigend, Phys. Chem. Chem. Phys. 8, 1057 (2006).

================================================================================
                                        WARNINGS
                       Please study these warnings very carefully!
================================================================================

WARNING: Old DensityContainer found on disk!
         Will remove this file - 
         If you want to keep old densities, please start your calculation with a different basename. 


WARNING: Geometry Optimization
  ===> : Switching off AutoStart
         For restart on a previous wavefunction, please use MOREAD

================================================================================
                                       INPUT FILE
================================================================================
NAME = Triclosan\Triclosan_B3LYP_STO-3G\Triclosan_B3LYP_STO-3G.orcainp
|  1> # ORCA input file
|  2> # 
|  3> !B3LYP STO-3G Opt CPCM(WATER)
|  4> * xyz 0 1
|  5>    C       -0.49838         1.45672         0.09896
|  6>    C        0.83636         1.86187         0.13987
|  7>    C        1.85850         0.90964         0.07692
|  8>    C        1.52705        -0.44553         0.10327
|  9>    C        0.19399        -0.85911         0.06588
| 10>    C       -0.81311         0.09845         0.04328
| 11>   Cl       -2.45804        -0.38995        -0.04430
| 12>    O        2.48623        -1.41804         0.15924
| 13>    O        3.19540         1.23915         0.00408
| 14>    C        3.55840         2.36555        -0.71342
| 15>    C        4.59924         3.16189        -0.21840
| 16>    C        4.97545         4.33057        -0.88996
| 17>    C        4.31222         4.69779        -2.05616
| 18>    C        3.30213         3.89395        -2.58058
| 19>    C        2.94419         2.71337        -1.92599
| 20>   Cl        4.74503         6.15332        -2.86475
| 21>   Cl        5.43890         2.74189         1.23085
| 22>    H       -1.28677         2.20447         0.09898
| 23>    H        1.06264         2.92223         0.19335
| 24>    H       -0.04081        -1.92109         0.05235
| 25>    H        3.32941        -0.97731         0.37369
| 26>    H        5.77651         4.95189        -0.49678
| 27>    H        2.78688         4.18033        -3.49530
| 28>    H        2.16802         2.08687        -2.36091
| 29> **                         ****END OF INPUT****
================================================================================

                       *****************************
                       * Geometry Optimization Run *
                       *****************************

Geometry optimization settings:
Update method            Update   .... BFGS
Choice of coordinates    CoordSys .... (2022) Redundant Internals
Initial Hessian          InHess   .... Almloef's Model
Max. no of cycles        MaxIter  .... 72

Convergence Tolerances:
Energy Change            TolE     ....  5.0000e-06 Eh
Max. Gradient            TolMAXG  ....  3.0000e-04 Eh/bohr
RMS Gradient             TolRMSG  ....  1.0000e-04 Eh/bohr
Max. Displacement        TolMAXD  ....  4.0000e-03 bohr
RMS Displacement         TolRMSD  ....  2.0000e-03 bohr
Strict Convergence                .... False

------------------------------------------------------------------------------
                        ORCA OPTIMIZATION COORDINATE SETUP
------------------------------------------------------------------------------

The optimization will be done in redundant internal coordinates (2022)
Making redundant internal coordinates   ...  (2022 redundants) done
Evaluating the initial hessian          ...  (Almloef) done
Evaluating the coordinates              ...  done
Calculating the B-matrix                .... done
Calculating the G-matrix                .... done
Diagonalizing the G-matrix              .... done
Small eigenvalue found = 5.189e-03
Small eigenvalue found = 1.845e-02
Small eigenvalue found = 2.339e-02
The first mode is                       ....   52
The number of degrees of freedom        ....   66

    -----------------------------------------------------------------
                    Redundant Internal Coordinates


    -----------------------------------------------------------------
         Definition                    Initial Value    Approx d2E/dq
    -----------------------------------------------------------------
      1. B(C   1,C   0)                  1.3955         0.612355   
      2. B(C   2,C   1)                  1.3984         0.605849   
      3. B(C   3,C   2)                  1.3954         0.612606   
      4. B(C   4,C   3)                  1.3962         0.610629   
      5. B(C   5,C   4)                  1.3898         0.625141   
      6. B(C   5,C   0)                  1.3954         0.612596   
      7. B(Cl  6,C   5)                  1.7181         0.419963   
      8. B(O   7,C   3)                  1.3671         0.608733   
      9. B(O   8,C   2)                  1.3788         0.583028   
     10. B(C   9,O   8)                  1.3840         0.572147   
     11. B(C  10,C   9)                  1.4009         0.600249   
     12. B(C  11,C  10)                  1.3994         0.603574   
     13. B(C  12,C  11)                  1.3910         0.622616   
     14. B(C  13,C  12)                  1.3934         0.617128   
     15. B(C  14,C   9)                  1.4031         0.595543   
     16. B(C  14,C  13)                  1.3966         0.609921   
     17. B(Cl 15,C  12)                  1.7204         0.416517   
     18. B(Cl 16,C  10)                  1.7268         0.406846   
     19. B(H  17,C   0)                  1.0866         0.364633   
     20. B(H  18,C   1)                  1.0856         0.366031   
     21. B(H  19,C   4)                  1.0877         0.363141   
     22. B(H  20,O   8)                  2.2511         0.004531   
     23. B(H  20,O   7)                  0.9753         0.491561   
     24. B(H  21,C  11)                  1.0873         0.363625   
     25. B(H  22,C  13)                  1.0882         0.362471   
     26. B(H  23,C  14)                  1.0882         0.362539   
     27. A(C   1,C   0,H  17)          119.6162         0.352915   
     28. A(C   1,C   0,C   5)          119.9682         0.432164   
     29. A(C   5,C   0,H  17)          120.4118         0.352938   
     30. A(C   0,C   1,H  18)          118.9740         0.353144   
     31. A(C   2,C   1,H  18)          120.9976         0.352506   
     32. A(C   0,C   1,C   2)          120.0073         0.431305   
     33. A(C   1,C   2,C   3)          119.1344         0.431337   
     34. A(C   1,C   2,O   8)          123.2546         0.424738   
     35. A(C   3,C   2,O   8)          117.6070         0.425582   
     36. A(C   2,C   3,C   4)          120.9279         0.431946   
     37. A(C   4,C   3,O   7)          117.4034         0.428636   
     38. A(C   2,C   3,O   7)          121.6678         0.428885   
     39. A(C   3,C   4,C   5)          119.2209         0.433522   
     40. A(C   5,C   4,H  19)          121.0675         0.353906   
     41. A(C   3,C   4,H  19)          119.7115         0.352502   
     42. A(C   0,C   5,Cl  6)          119.6487         0.422262   
     43. A(C   0,C   5,C   4)          120.4351         0.433773   
     44. A(C   4,C   5,Cl  6)          119.9152         0.423795   
     45. A(C   3,O   7,H  20)          107.1047         0.365416   
     46. A(C   2,O   8,C   9)          118.4377         0.417690   
     47. A(O   8,C   9,C  10)          118.3161         0.422608   
     48. A(C  10,C   9,C  14)          119.3218         0.428441   
     49. A(O   8,C   9,C  14)          122.3438         0.422014   
     50. A(C   9,C  10,C  11)          120.3239         0.429471   
     51. A(C  11,C  10,Cl 16)          118.3700         0.418768   
     52. A(C   9,C  10,Cl 16)          121.3041         0.418356   
     53. A(C  12,C  11,H  21)          120.2377         0.353744   
     54. A(C  10,C  11,H  21)          120.1142         0.351889   
     55. A(C  10,C  11,C  12)          119.6461         0.432302   
     56. A(C  13,C  12,Cl 15)          119.5757         0.422197   
     57. A(C  11,C  12,Cl 15)          119.8326         0.422865   
     58. A(C  11,C  12,C  13)          120.5911         0.434032   
     59. A(C  12,C  13,C  14)          119.8068         0.432427   
     60. A(C  14,C  13,H  22)          119.6764         0.352323   
     61. A(C  12,C  13,H  22)          120.5164         0.353024   
     62. A(C   9,C  14,C  13)          120.1619         0.429671   
     63. A(C  13,C  14,H  23)          118.8279         0.352334   
     64. A(C   9,C  14,H  23)          120.9938         0.350916   
     65. D(C   2,C   1,C   0,H  17)   -177.0031         0.025909   
     66. D(H  18,C   1,C   0,H  17)      1.3416         0.025909   
     67. D(C   2,C   1,C   0,C   5)      2.2818         0.025909   
     68. D(H  18,C   1,C   0,C   5)   -179.3735         0.025909   
     69. D(C   3,C   2,C   1,H  18)    175.5746         0.025331   
     70. D(O   8,C   2,C   1,H  18)     -3.6759         0.025331   
     71. D(O   8,C   2,C   1,C   0)    174.6347         0.025331   
     72. D(C   3,C   2,C   1,C   0)     -6.1148         0.025331   
     73. D(O   7,C   3,C   2,O   8)      4.9411         0.025932   
     74. D(O   7,C   3,C   2,C   1)   -174.3516         0.025932   
     75. D(C   4,C   3,C   2,O   8)   -174.7104         0.025932   
     76. D(C   4,C   3,C   2,C   1)      5.9969         0.025932   
     77. D(H  19,C   4,C   3,C   2)    177.8731         0.025755   
     78. D(C   5,C   4,C   3,O   7)    178.3616         0.025755   
     79. D(C   5,C   4,C   3,C   2)     -1.9726         0.025755   
     80. D(H  19,C   4,C   3,O   7)     -1.7928         0.025755   
     81. D(Cl  6,C   5,C   4,H  19)     -1.4413         0.027070   
     82. D(C   0,C   5,C   4,H  19)    178.1925         0.027070   
     83. D(C   0,C   5,C   4,C   3)     -1.9640         0.027070   
     84. D(Cl  6,C   5,C   0,H  17)      0.7193         0.025931   
     85. D(Cl  6,C   5,C   0,C   1)   -178.5598         0.025931   
     86. D(Cl  6,C   5,C   4,C   3)    178.4022         0.027070   
     87. D(C   4,C   5,C   0,H  17)   -178.9155         0.025931   
     88. D(C   4,C   5,C   0,C   1)      1.8053         0.025931   
     89. D(H  20,O   7,C   3,C   4)   -167.9419         0.027116   
     90. D(H  20,O   7,C   3,C   2)     12.3948         0.027116   
     91. D(C   9,O   8,C   2,C   3)    145.4603         0.027282   
     92. D(C   9,O   8,C   2,C   1)    -35.2785         0.027282   
     93. D(C  14,C   9,O   8,C   2)    -39.3694         0.026210   
     94. D(C  10,C   9,O   8,C   2)    142.2004         0.026210   
     95. D(C  11,C  10,C   9,O   8)   -178.1978         0.024839   
     96. D(Cl 16,C  10,C   9,C  14)   -177.1840         0.024839   
     97. D(Cl 16,C  10,C   9,O   8)      1.2949         0.024839   
     98. D(C  11,C  10,C   9,C  14)      3.3233         0.024839   
     99. D(H  21,C  11,C  10,Cl 16)     -0.1788         0.025130   
    100. D(H  21,C  11,C  10,C   9)    179.3286         0.025130   
    101. D(C  12,C  11,C  10,Cl 16)   -179.6682         0.025130   
    102. D(C  12,C  11,C  10,C   9)     -0.1608         0.025130   
    103. D(Cl 15,C  12,C  11,H  21)     -0.9707         0.026838   
    104. D(Cl 15,C  12,C  11,C  10)    178.5182         0.026838   
    105. D(C  13,C  12,C  11,H  21)    178.7584         0.026838   
    106. D(C  13,C  12,C  11,C  10)     -1.7528         0.026838   
    107. D(H  22,C  13,C  12,Cl 15)     -0.0147         0.026339   
    108. D(H  22,C  13,C  12,C  11)   -179.7444         0.026339   
    109. D(C  14,C  13,C  12,Cl 15)   -179.8112         0.026339   
    110. D(C  14,C  13,C  12,C  11)      0.4591         0.026339   
    111. D(H  23,C  14,C  13,H  22)      1.4971         0.025692   
    112. D(H  23,C  14,C  13,C  12)   -178.7046         0.025692   
    113. D(C   9,C  14,C  13,H  22)   -177.0456         0.025692   
    114. D(C   9,C  14,C  13,C  12)      2.7526         0.025692   
    115. D(H  23,C  14,C   9,C  10)    176.8704         0.024431   
    116. D(H  23,C  14,C   9,O   8)     -1.5445         0.024431   
    117. D(C  13,C  14,C   9,C  10)     -4.6189         0.024431   
    118. D(C  13,C  14,C   9,O   8)    176.9661         0.024431   
    -----------------------------------------------------------------

Number of atoms                         .... 24
Number of degrees of freedom            .... 118


         *************************************************************
         *                GEOMETRY OPTIMIZATION CYCLE   1            *
         *************************************************************
---------------------------------
CARTESIAN COORDINATES (ANGSTROEM)
---------------------------------
  C     -0.498380    1.456720    0.098960
  C      0.836360    1.861870    0.139870
  C      1.858500    0.909640    0.076920
  C      1.527050   -0.445530    0.103270
  C      0.193990   -0.859110    0.065880
  C     -0.813110    0.098450    0.043280
  Cl    -2.458040   -0.389950   -0.044300
  O      2.486230   -1.418040    0.159240
  O      3.195400    1.239150    0.004080
  C      3.558400    2.365550   -0.713420
  C      4.599240    3.161890   -0.218400
  C      4.975450    4.330570   -0.889960
  C      4.312220    4.697790   -2.056160
  C      3.302130    3.893950   -2.580580
  C      2.944190    2.713370   -1.925990
  Cl     4.745030    6.153320   -2.864750
  Cl     5.438900    2.741890    1.230850
  H     -1.286770    2.204470    0.098980
  H      1.062640    2.922230    0.193350
  H     -0.040810   -1.921090    0.052350
  H      3.329410   -0.977310    0.373690
  H      5.776510    4.951890   -0.496780
  H      2.786880    4.180330   -3.495300
  H      2.168020    2.086870   -2.360910

----------------------------
CARTESIAN COORDINATES (A.U.)
----------------------------
  NO LB      ZA    FRAG     MASS         X           Y           Z
   0 C     6.0000    0    12.011   -0.941802    2.752802    0.187007
   1 C     6.0000    0    12.011    1.580491    3.518424    0.264316
   2 C     6.0000    0    12.011    3.512056    1.718970    0.145358
   3 C     6.0000    0    12.011    2.885706   -0.841930    0.195152
   4 C     6.0000    0    12.011    0.366588   -1.623483    0.124495
   5 C     6.0000    0    12.011   -1.536555    0.186044    0.081787
   6 Cl   17.0000    0    35.453   -4.645022   -0.736899   -0.083715
   7 O     8.0000    0    15.999    4.698294   -2.679707    0.300920
   8 O     8.0000    0    15.999    6.038431    2.341654    0.007710
   9 C     6.0000    0    12.011    6.724401    4.470242   -1.348168
  10 C     6.0000    0    12.011    8.691304    5.975106   -0.412716
  11 C     6.0000    0    12.011    9.402238    8.183591   -1.681781
  12 C     6.0000    0    12.011    8.148915    8.877537   -3.885579
  13 C     6.0000    0    12.011    6.240121    7.358499   -4.876589
  14 C     6.0000    0    12.011    5.563713    5.127526   -3.639594
  15 Cl   17.0000    0    35.453    8.966807   11.628090   -5.413593
  16 Cl   17.0000    0    35.453   10.278031    5.181421    2.325969
  17 H     1.0000    0     1.008   -2.431643    4.165845    0.187045
  18 H     1.0000    0     1.008    2.008099    5.522214    0.365379
  19 H     1.0000    0     1.008   -0.077120   -3.630334    0.098927
  20 H     1.0000    0     1.008    6.291673   -1.846848    0.706172
  21 H     1.0000    0     1.008   10.916022    9.357716   -0.938778
  22 H     1.0000    0     1.008    5.266440    7.899679   -6.605160
  23 H     1.0000    0     1.008    4.096964    3.943613   -4.461473

--------------------------------
INTERNAL COORDINATES (ANGSTROEM)
--------------------------------
 C      0   0   0     0.000000000000     0.00000000     0.00000000
 C      1   0   0     1.395475194405     0.00000000     0.00000000
 C      2   1   0     1.398382942902   120.00730714     0.00000000
 C      3   2   1     1.395363448676   119.13439743   353.88521152
 C      4   3   2     1.396243314075   120.92787852     5.99690044
 C      5   4   3     1.389849748570   119.22087215   358.02744876
 Cl     6   5   4     1.718138388285   119.91522697   178.40217544
 O      4   3   2     1.367089833698   121.66780929   185.64837581
 O      3   2   1     1.378834332217   123.25460873   174.63471367
 C      9   3   2     1.383962503105   118.43773013   324.72150892
 C     10   9   3     1.400910454526   118.31610011   142.20041341
 C     11  10   9     1.399406924415   120.32394736   181.80216421
 C     12  11  10     1.390951832847   119.64607025   359.83916149
 C     13  12  11     1.393361722633   120.59113197   358.24719922
 C     14  13  12     1.396559432355   119.80682487     0.45907096
 Cl    13  12  11     1.720380732600   119.83263710   178.51818599
 Cl    11  10   9     1.726775746326   121.30414926     1.29488420
 H      1   2   3     1.086595074073   119.61615663   182.99686979
 H      2   1   3     1.085553351245   118.97395465   178.34468767
 H      5   4   3     1.087711184690   119.71147944   177.87310101
 H      8   4   3     0.975286751576   107.10469875    12.39482959
 H     12  11  10     1.087348232352   120.11423103   179.32864385
 H     14  13  12     1.088213556844   120.51644043   180.25560822
 H     15  14  13     1.088162453543   118.82789416   181.29536685

---------------------------
INTERNAL COORDINATES (A.U.)
---------------------------
 C      0   0   0     0.000000000000     0.00000000     0.00000000
 C      1   0   0     2.637065944106     0.00000000     0.00000000
 C      2   1   0     2.642560792432   120.00730714     0.00000000
 C      3   2   1     2.636854775281   119.13439743   353.88521152
 C      4   3   2     2.638517479921   120.92787852     5.99690044
 C      5   4   3     2.626435392097   119.22087215   358.02744876
 Cl     6   5   4     3.246811014036   119.91522697   178.40217544
 O      4   3   2     2.583425386157   121.66780929   185.64837581
 O      3   2   1     2.605619271938   123.25460873   174.63471367
 C      9   3   2     2.615310110484   118.43773013   324.72150892
 C     10   9   3     2.647337097201   118.31610011   142.20041341
 C     11  10   9     2.644495837057   120.32394736   181.80216421
 C     12  11  10     2.628518029556   119.64607025   359.83916149
 C     13  12  11     2.633072061266   120.59113197   358.24719922
 C     14  13  12     2.639114856896   119.80682487     0.45907096
 Cl    13  12  11     3.251048430688   119.83263710   178.51818599
 Cl    11  10   9     3.263133255254   121.30414926     1.29488420
 H      1   2   3     2.053367108466   119.61615663   182.99686979
 H      2   1   3     2.051398537614   118.97395465   178.34468767
 H      5   4   3     2.055476251867   119.71147944   177.87310101
 H      8   4   3     1.843024862521   107.10469875    12.39482959
 H     12  11  10     2.054790371350   120.11423103   179.32864385
 H     14  13  12     2.056425597656   120.51644043   180.25560822
 H     15  14  13     2.056329026411   118.82789416   181.29536685

---------------------
BASIS SET INFORMATION
---------------------
There are 4 groups of distinct atoms

 Group   1 Type C   : 6s3p contracted to 2s1p pattern {33/3}
 Group   2 Type Cl  : 9s6p contracted to 3s2p pattern {333/33}
 Group   3 Type O   : 6s3p contracted to 2s1p pattern {33/3}
 Group   4 Type H   : 3s contracted to 1s pattern {3}

Atom   0C    basis set group =>   1
Atom   1C    basis set group =>   1
Atom   2C    basis set group =>   1
Atom   3C    basis set group =>   1
Atom   4C    basis set group =>   1
Atom   5C    basis set group =>   1
Atom   6Cl   basis set group =>   2
Atom   7O    basis set group =>   3
Atom   8O    basis set group =>   3
Atom   9C    basis set group =>   1
Atom  10C    basis set group =>   1
Atom  11C    basis set group =>   1
Atom  12C    basis set group =>   1
Atom  13C    basis set group =>   1
Atom  14C    basis set group =>   1
Atom  15Cl   basis set group =>   2
Atom  16Cl   basis set group =>   2
Atom  17H    basis set group =>   4
Atom  18H    basis set group =>   4
Atom  19H    basis set group =>   4
Atom  20H    basis set group =>   4
Atom  21H    basis set group =>   4
Atom  22H    basis set group =>   4
Atom  23H    basis set group =>   4
---------------------------------
AUXILIARY/J BASIS SET INFORMATION
---------------------------------
There are 4 groups of distinct atoms

 Group   1 Type C   : 12s5p4d2f1g contracted to 6s4p3d1f1g pattern {711111/2111/211/2/1}
 Group   2 Type Cl  : 14s5p5d2f1g contracted to 8s4p3d1f1g pattern {71111111/2111/311/2/1}
 Group   3 Type O   : 12s5p4d2f1g contracted to 6s4p3d1f1g pattern {711111/2111/211/2/1}
 Group   4 Type H   : 5s2p1d contracted to 3s1p1d pattern {311/2/1}

Atom   0C    basis set group =>   1
Atom   1C    basis set group =>   1
Atom   2C    basis set group =>   1
Atom   3C    basis set group =>   1
Atom   4C    basis set group =>   1
Atom   5C    basis set group =>   1
Atom   6Cl   basis set group =>   2
Atom   7O    basis set group =>   3
Atom   8O    basis set group =>   3
Atom   9C    basis set group =>   1
Atom  10C    basis set group =>   1
Atom  11C    basis set group =>   1
Atom  12C    basis set group =>   1
Atom  13C    basis set group =>   1
Atom  14C    basis set group =>   1
Atom  15Cl   basis set group =>   2
Atom  16Cl   basis set group =>   2
Atom  17H    basis set group =>   4
Atom  18H    basis set group =>   4
Atom  19H    basis set group =>   4
Atom  20H    basis set group =>   4
Atom  21H    basis set group =>   4
Atom  22H    basis set group =>   4
Atom  23H    basis set group =>   4
------------------------------------------------------------------------------
                             ORCA STARTUP CALCULATIONS
                           -- RI-GTO INTEGRALS CHOSEN --
------------------------------------------------------------------------------
------------------------------------------------------------------------------
                   ___                                                        
                  /   \      - P O W E R E D   B Y -                         
                 /     \                                                     
                 |  |  |   _    _      __       _____    __    __             
                 |  |  |  | |  | |    /  \     |  _  \  |  |  /  |          
                  \  \/   | |  | |   /    \    | | | |  |  | /  /          
                 / \  \   | |__| |  /  /\  \   | |_| |  |  |/  /          
                |  |  |   |  __  | /  /__\  \  |    /   |      \           
                |  |  |   | |  | | |   __   |  |    \   |  |\   \          
                \     /   | |  | | |  |  |  |  | |\  \  |  | \   \       
                 \___/    |_|  |_| |__|  |__|  |_| \__\ |__|  \__/        
                                                                              
                      - O R C A' S   B I G   F R I E N D -                    
                                      &                                       
                       - I N T E G R A L  F E E D E R -                       
                                                                              
 v1 FN, 2020, v2 2021, v3 2022-2024                                           
------------------------------------------------------------------------------


----------------------
SHARK INTEGRAL PACKAGE
----------------------

Number of atoms                             ...     24
Number of basis functions                   ...    104
Number of shells                            ...     64
Maximum angular momentum                    ...      1
Integral batch strategy                     ... SHARK/LIBINT Hybrid
RI-J (if used) integral strategy            ... SPLIT-RIJ (Revised 2003 algorithm where possible)
Printlevel                                  ...      1
Contraction scheme used                     ... SEGMENTED contraction
Prescreening option                         ... SCHWARTZ
   Thresh                                   ... 2.500e-11
   Tcut                                     ... 2.500e-12
   Tpresel                                  ... 2.500e-12 
Coulomb Range Separation                    ... NOT USED
Exchange Range Separation                   ... NOT USED
Multipole approximations                    ... NOT USED
Finite Nucleus Model                        ... NOT USED
CABS basis                                  ... NOT available
Auxiliary Coulomb fitting basis             ... AVAILABLE
   # of basis functions in Aux-J            ...    916
   # of shells in Aux-J                     ...    296
   Maximum angular momentum in Aux-J        ...      4
Auxiliary J/K fitting basis                 ... NOT available
Auxiliary Correlation fitting basis         ... NOT available
Auxiliary 'external' fitting basis          ... NOT available

Checking pre-screening integrals            ... done (  0.0 sec) Dimension = 64
Check shell pair data                       ... done (  0.0 sec)
Shell pair information
Shell pair cut-off parameter TPreSel        ...   2.5e-12
Total number of shell pairs                 ...      2080
Shell pairs after pre-screening             ...      1547
Total number of primitive shell pairs       ...     18720
Primitive shell pairs kept                  ...      9002
          la=0 lb=0:    686 shell pairs
          la=1 lb=0:    685 shell pairs
          la=1 lb=1:    176 shell pairs

Calculating one electron integrals          ... done (  0.0 sec)
Calculating RI/J V-Matrix + Cholesky decomp.... done (  0.0 sec)
Calculating Nuclear repulsion               ... done (  0.0 sec) ENN=   1433.084984797995 Eh

Diagonalization of the overlap matrix:
Smallest eigenvalue                        ... 1.726e-01
Time for diagonalization                   ...    0.000 sec
Threshold for overlap eigenvalues          ... 1.000e-07
Number of eigenvalues below threshold      ... 0
Time for construction of square roots      ...    0.002 sec
Total time needed                          ...    0.003 sec

-------------------
DFT GRID GENERATION
-------------------

General Integration Accuracy     IntAcc      ... 4.388
Radial Grid Type                 RadialGrid  ... OptM3 with GC (2021)
Angular Grid (max. ang.)         AngularGrid ... 4 (Lebedev-302)
Angular grid pruning method      GridPruning ... 4 (adaptive)
Weight generation scheme         WeightScheme... mBecke (2022)
Basis function cutoff            BFCut       ... 1.0000e-11
Integration weight cutoff        WCut        ... 1.0000e-14
Partially contracted basis set               ... off
Rotationally invariant grid construction     ... off
Angular grids for H and He will be reduced by one unit

Total number of grid points                  ...   128284
Total number of batches                      ...     2017
Average number of points per batch           ...       63
Average number of grid points per atom       ...     5345

--------------------
COSX GRID GENERATION
--------------------

GRIDX 1
-------
General Integration Accuracy     IntAcc      ... 3.816
Radial Grid Type                 RadialGrid  ... OptM3 with GC (2021)
Angular Grid (max. ang.)         AngularGrid ... 1 (Lebedev-50)
Angular grid pruning method      GridPruning ... 4 (adaptive)
Weight generation scheme         WeightScheme... mBecke (2022)
Basis function cutoff            BFCut       ... 1.0000e-11
Integration weight cutoff        WCut        ... 1.0000e-14
Partially contracted basis set               ... on
Rotationally invariant grid construction     ... off
Angular grids for H and He will be reduced by one unit

Total number of grid points                  ...    19350
Total number of batches                      ...      163
Average number of points per batch           ...      118
Average number of grid points per atom       ...      806
UseSFitting                                  ... on

GRIDX 2
-------
General Integration Accuracy     IntAcc      ... 4.020
Radial Grid Type                 RadialGrid  ... OptM3 with GC (2021)
Angular Grid (max. ang.)         AngularGrid ... 2 (Lebedev-110)
Angular grid pruning method      GridPruning ... 4 (adaptive)
Weight generation scheme         WeightScheme... mBecke (2022)
Basis function cutoff            BFCut       ... 1.0000e-11
Integration weight cutoff        WCut        ... 1.0000e-14
Partially contracted basis set               ... on
Rotationally invariant grid construction     ... off
Angular grids for H and He will be reduced by one unit

Total number of grid points                  ...    35974
Total number of batches                      ...      296
Average number of points per batch           ...      121
Average number of grid points per atom       ...     1499
UseSFitting                                  ... on

GRIDX 3
-------
General Integration Accuracy     IntAcc      ... 4.338
Radial Grid Type                 RadialGrid  ... OptM3 with GC (2021)
Angular Grid (max. ang.)         AngularGrid ... 3 (Lebedev-194)
Angular grid pruning method      GridPruning ... 4 (adaptive)
Weight generation scheme         WeightScheme... mBecke (2022)
Basis function cutoff            BFCut       ... 1.0000e-11
Integration weight cutoff        WCut        ... 1.0000e-14
Partially contracted basis set               ... on
Rotationally invariant grid construction     ... off
Angular grids for H and He will be reduced by one unit

Total number of grid points                  ...    80805
Total number of batches                      ...      642
Average number of points per batch           ...      125
Average number of grid points per atom       ...     3367
UseSFitting                                  ... on
Initializing property integral containers    ... done (  0.0 sec)

SHARK setup successfully completed in   1.2 seconds

Maximum memory used throughout the entire STARTUP-calculation: 45.2 MB
-------------------------------------------------------------------------------
                                 ORCA GUESS
                   Start orbitals & Density for SCF / CASSCF
-------------------------------------------------------------------------------

------------
SCF SETTINGS
------------
Hamiltonian:
 Density Functional     Method          .... DFT(GTOs)
 Exchange Functional    Exchange        .... B88
   X-Alpha parameter    XAlpha          ....  0.666667
   Becke's b parameter  XBeta           ....  0.004200
 Correlation Functional Correlation     .... LYP
 LDA part of GGA corr.  LDAOpt          .... VWN-5
 Gradients option       PostSCFGGA      .... off
 Hybrid DFT is turned on
   Fraction HF Exchange ScalHFX         ....  0.200000
   Scaling of DF-GGA-X  ScalDFX         ....  0.720000
   Scaling of DF-GGA-C  ScalDFC         ....  0.810000
   Scaling of DF-LDA-C  ScalLDAC        ....  1.000000
   Perturbative correction              ....  0.000000
   NL short-range parameter             ....  4.800000
 RI-approximation to the Coulomb term is turned on
   Number of AuxJ basis functions       .... 916
   RIJ-COSX (HFX calculated with COS-X)).... on


General Settings:
 Integral files         IntName         .... Triclosan\Triclosan_B3LYP_STO-3G\Triclosan_B3LYP_STO-3G.orcainp
 Hartree-Fock type      HFTyp           .... RHF
 Total Charge           Charge          ....    0
 Multiplicity           Mult            ....    1
 Number of Electrons    NEL             ....  146
 Basis Dimension        Dim             ....  104
 Nuclear Repulsion      ENuc            ....   1433.0849847980 Eh

Convergence Acceleration:
 AO-DIIS                CNVDIIS         .... on
   Start iteration      DIISMaxIt       ....    12
   Startup error        DIISStart       ....  0.200000
   # of expansion vecs  DIISMaxEq       ....     5
   Bias factor          DIISBfac        ....   1.050
   Max. coefficient     DIISMaxC        ....  10.000
 MO-DIIS                CNVKDIIS        .... off
 Trust-Rad. Augm. Hess. CNVTRAH         .... auto
   Auto Start mean grad. ratio tolernc. ....  1.125000
   Auto Start start iteration           ....    50
   Auto Start num. interpolation iter.  ....    10
   Max. Number of Micro iterations      ....    24
   Max. Number of Macro iterations      .... Maxiter - #DIIS iter
   Number of Davidson start vectors     ....     2
   Converg. threshold    (grad. norm)   ....   1.000e-05
   Grad. Scal. Fac. for Micro threshold ....   0.100
   Minimum threshold for Micro iter.    ....   1.000e-02
   NR start threshold (gradient norm)   ....   1.000e-04
   Initial trust radius                 ....   0.400
   Minimum AH scaling param. (alpha)    ....   1.000
   Maximum AH scaling param. (alpha)    .... 1000.000
   Quad. conv. algorithm                .... NR
   White noise on init. David. guess    .... on
   Maximum white noise                  ....   0.010
   Pseudo random numbers                .... off
   Inactive MOs                         .... canonical
   Orbital update algorithm             .... Taylor
   Preconditioner                       .... Diag
   Full preconditioner red. dimension   ....   250
 SOSCF                  CNVSOSCF        .... on
   Start iteration      SOSCFMaxIt      ....   150
   Startup grad/error   SOSCFStart      ....  0.003300
   Hessian update       SOSCFHessUp     .... L-BFGS
 Level Shifting         CNVShift        .... on
   Level shift para.    LevelShift      ....    0.2500
   Turn off err/grad.   ShiftErr        ....    0.0010
 Zerner damping         CNVZerner       .... off
 Static damping         CNVDamp         .... on
   Fraction old density DampFac         ....    0.7000
   Max. Damping (<1)    DampMax         ....    0.9800
   Min. Damping (>=0)   DampMin         ....    0.0000
   Turn off err/grad.   DampErr         ....    0.1000

SCF Procedure:
 Maximum # iterations   MaxIter         ....   125
 SCF integral mode      SCFMode         .... Direct
   Integral package                     .... SHARK and LIBINT hybrid scheme
 Reset frequency        DirectResetFreq ....    20
 Integral Threshold     Thresh          ....  2.500e-11 Eh
 Primitive CutOff       TCut            ....  2.500e-12 Eh

Convergence Tolerance:
 Convergence Check Mode ConvCheckMode   .... Total+1el-Energy
 Convergence forced     ConvForced      .... 0
 Energy Change          TolE            ....  1.000e-08 Eh
 1-El. energy change                    ....  1.000e-05 Eh
 Orbital Gradient       TolG            ....  1.000e-05
 Orbital Rotation angle TolX            ....  1.000e-05
 DIIS Error             TolErr          ....  5.000e-07

------------------------------
INITIAL GUESS: MODEL POTENTIAL
------------------------------
Loading Hartree-Fock densities                     ... done
Calculating cut-offs                               ... done
Initializing the effective Hamiltonian             ... done
Setting up the integral package (SHARK)            ... done
Starting the Coulomb interaction                   ... done (   0.1 sec)
Making the grid                                    ... done (   0.2 sec)
Mapping shells                                     ... done
Starting the XC term evaluation                    ... done (   0.1 sec)
  promolecular density results
     # of electrons  =    145.990663720
     EX              =   -162.821039643
     EC              =     -5.410528063
     EX+EC           =   -168.231567706
Transforming the Hamiltonian                       ... done (   0.0 sec)
Diagonalizing the Hamiltonian                      ... done (   0.0 sec)
Back transforming the eigenvectors                 ... done (   0.0 sec)
Now organizing SCF variables                       ... done
                      ------------------
                      INITIAL GUESS DONE (   0.3 sec)
                      ------------------
             **** ENERGY FILE WAS UPDATED (Triclosan\Triclosan_B3LYP_STO-3G\Triclosan_B3LYP_STO-3G.orcainp.en.tmp) ****
Finished Guess after   0.4 sec
Maximum memory used throughout the entire GUESS-calculation: 19.5 MB

-------------------------------------------------------------------------------------------
                                      ORCA LEAN-SCF
                              memory conserving SCF solver
-------------------------------------------------------------------------------------------

--------------------
CPCM SOLVATION MODEL
--------------------
CPCM parameters:
  Epsilon                                         ...      80.1510
  Refrac                                          ...       1.3328
  Rsolv                                           ...       1.3000
  Surface type                                    ... GAUSSIAN VDW
  Discretization scheme                           ... Constant charge density
    Threshold for H atoms                         ...       5.0000 (charges/Ang^2)
    Threshold for non-H atoms                     ...       5.0000 (charges/Ang^2)
  Epsilon function type                           ...         CPCM
Solvent:                                          ... WATER
Radii:
  Scheme                                          ... Element-dependent radii
  Radius for C  used is    3.8550 Bohr (=   2.0400 Ang.)
  Radius for Cl used is    3.9684 Bohr (=   2.1000 Ang.)
  Radius for O  used is    3.4469 Bohr (=   1.8240 Ang.)
  Radius for H  used is    2.4944 Bohr (=   1.3200 Ang.)
Calculating surface                               ...        done! (  0.0s)
Cavity surface points                             ...         2518
Cavity Volume                                     ...    1981.6541
Cavity Surface-area                               ...    1034.6095
Calculating surface distance matrix               ...        done! (  0.0s)
Performing Cholesky decomposition & store         ...        done! (  0.1s)
Overall time for CPCM initialization              ...                 0.1s

----------------------------------------D-I-I-S--------------------------------------------
Iteration    Energy (Eh)           Delta-E    RMSDP     MaxDP     DIISErr   Damp  Time(sec)
-------------------------------------------------------------------------------------------
               ***  Starting incremental Fock matrix formation  ***
    1    -1969.0770482339328282     0.00e+00  3.75e-03  5.39e-02  1.12e-01  0.700   2.4
    2    -1969.1185267163502886    -4.15e-02  2.89e-03  4.15e-02  7.16e-02  0.700   1.4
                               ***Turning on AO-DIIS***
    3    -1969.1380760241688677    -1.95e-02  1.29e-03  2.12e-02  4.02e-02  0.700   1.4
    4    -1969.1491517667966491    -1.11e-02  2.34e-03  4.12e-02  2.55e-02  0.000   1.3
    5    -1969.1720867796154835    -2.29e-02  3.71e-04  6.91e-03  3.42e-03  0.000   1.4
                              *** Initializing SOSCF ***
---------------------------------------S-O-S-C-F--------------------------------------
Iteration    Energy (Eh)           Delta-E    RMSDP     MaxDP     MaxGrad    Time(sec)
--------------------------------------------------------------------------------------
    6    -1969.1722519537026983    -1.65e-04  9.03e-05  1.83e-03  8.51e-04     1.3
               *** Restarting incremental Fock matrix formation ***
    7    -1969.1722765808106033    -2.46e-05  6.58e-05  1.24e-03  1.70e-04     2.4
    8    -1969.1722779543158595    -1.37e-06  3.09e-05  6.00e-04  1.38e-04     1.7
    9    -1969.1722784697979023    -5.15e-07  1.44e-05  3.26e-04  4.93e-05     1.5
   10    -1969.1722785420622586    -7.23e-08  5.78e-06  9.79e-05  2.37e-05     1.5
   11    -1969.1722785654349082    -2.34e-08  2.85e-06  4.51e-05  1.07e-05     1.2
   12    -1969.1722785741887947    -8.75e-09  1.42e-06  2.24e-05  7.27e-06     1.2
                 **** Energy Check signals convergence ****

               *****************************************************
               *                     SUCCESS                       *
               *           SCF CONVERGED AFTER  12 CYCLES          *
               *****************************************************

Recomputing exchange energy using gridx3       ... done (    3.403 sec)
Old exchange energy                            :    -32.797686212 Eh
New exchange energy                            :    -32.797613143 Eh
Exchange energy change after final integration :      0.000073069 Eh
Total energy after final integration           :  -1969.172205505 Eh
             **** ENERGY FILE WAS UPDATED (Triclosan\Triclosan_B3LYP_STO-3G\Triclosan_B3LYP_STO-3G.orcainp.en.tmp) ****

----------------
TOTAL SCF ENERGY
----------------

Total Energy       :      -1969.17220550519323 Eh          -53583.89986 eV

Components:
Nuclear Repulsion  :       1433.08498479799505 Eh           38996.22497 eV
Electronic Energy  :      -3402.24786108962508 Eh          -92579.87097 eV
One Electron Energy:      -5562.03979861866628 Eh         -151350.79745 eV
Two Electron Energy:       2159.79193752904121 Eh           58770.92648 eV
CPCM Dielectric    :         -0.00940228255892 Eh              -0.25585 eV

Virial components:
Potential Energy   :      -3902.31678214402473 Eh         -106187.43811 eV
Kinetic Energy     :       1933.14457663883172 Eh           52603.53824 eV
Virial Ratio       :          2.01863680001058

DFT components:
N(Alpha)           :       73.000012908756 electrons
N(Beta)            :       73.000012908756 electrons
N(Total)           :      146.000025817513 electrons
E(X)               :     -129.726446699514 Eh       
E(C)               :       -6.326191061112 Eh       
E(XC)              :     -136.052637760626 Eh       

CPCM Solvation Model Properties:
Surface-charge          :         -0.00593747121294
Corrected charge        :         -0.00000000000000
Outlying charge corr.   :          0.00000197072461 Eh               0.00005 eV
Free-energy (cav+disp)  :  This term is not implemented in the current solvation scheme

---------------
SCF CONVERGENCE
---------------

  Last Energy change         ...    8.7539e-09  Tolerance :   1.0000e-08
  Last MAX-Density change    ...    2.2378e-05  Tolerance :   1.0000e-07
  Last RMS-Density change    ...    1.4178e-06  Tolerance :   5.0000e-09
  Last DIIS Error            ...    8.5114e-04  Tolerance :   5.0000e-07
  Last Orbital Gradient      ...    7.2655e-06  Tolerance :   1.0000e-05
  Last Orbital Rotation      ...    1.6257e-05  Tolerance :   1.0000e-05


----------------
ORBITAL ENERGIES
----------------

  NO   OCC          E(Eh)            E(eV) 
   0   2.0000    -100.483426     -2734.2930 
   1   2.0000    -100.478287     -2734.1532 
   2   2.0000    -100.468918     -2733.8982 
   3   2.0000     -18.985950      -516.6340 
   4   2.0000     -18.943135      -515.4689 
   5   2.0000     -10.104183      -274.9488 
   6   2.0000     -10.088056      -274.5100 
   7   2.0000     -10.083390      -274.3830 
   8   2.0000     -10.081688      -274.3367 
   9   2.0000     -10.078076      -274.2384 
  10   2.0000     -10.069017      -273.9919 
  11   2.0000     -10.044961      -273.3373 
  12   2.0000     -10.037608      -273.1372 
  13   2.0000     -10.034636      -273.0563 
  14   2.0000     -10.019183      -272.6358 
  15   2.0000     -10.017705      -272.5956 
  16   2.0000     -10.014507      -272.5086 
  17   2.0000      -9.281629      -252.5660 
  18   2.0000      -9.277087      -252.4424 
  19   2.0000      -9.268498      -252.2086 
  20   2.0000      -7.060287      -192.1202 
  21   2.0000      -7.055645      -191.9939 
  22   2.0000      -7.046918      -191.7564 
  23   2.0000      -7.045237      -191.7106 
  24   2.0000      -7.044609      -191.6936 
  25   2.0000      -7.040723      -191.5878 
  26   2.0000      -7.040056      -191.5697 
  27   2.0000      -7.032164      -191.3549 
  28   2.0000      -7.031494      -191.3367 
  29   2.0000      -1.052743       -28.6466 
  30   2.0000      -1.012537       -27.5525 
  31   2.0000      -0.871949       -23.7269 
  32   2.0000      -0.849234       -23.1088 
  33   2.0000      -0.833735       -22.6871 
  34   2.0000      -0.790162       -21.5014 
  35   2.0000      -0.781420       -21.2635 
  36   2.0000      -0.715773       -19.4772 
  37   2.0000      -0.713878       -19.4256 
  38   2.0000      -0.705810       -19.2061 
  39   2.0000      -0.668314       -18.1858 
  40   2.0000      -0.602131       -16.3848 
  41   2.0000      -0.592352       -16.1187 
  42   2.0000      -0.571427       -15.5493 
  43   2.0000      -0.553471       -15.0607 
  44   2.0000      -0.517450       -14.0805 
  45   2.0000      -0.481312       -13.0972 
  46   2.0000      -0.464833       -12.6488 
  47   2.0000      -0.456585       -12.4243 
  48   2.0000      -0.440698       -11.9920 
  49   2.0000      -0.430325       -11.7097 
  50   2.0000      -0.418138       -11.3781 
  51   2.0000      -0.406735       -11.0678 
  52   2.0000      -0.403428       -10.9778 
  53   2.0000      -0.383919       -10.4470 
  54   2.0000      -0.378844       -10.3089 
  55   2.0000      -0.362764        -9.8713 
  56   2.0000      -0.354092        -9.6353 
  57   2.0000      -0.350347        -9.5334 
  58   2.0000      -0.343631        -9.3507 
  59   2.0000      -0.325711        -8.8630 
  60   2.0000      -0.317575        -8.6417 
  61   2.0000      -0.297835        -8.1045 
  62   2.0000      -0.284678        -7.7465 
  63   2.0000      -0.268015        -7.2930 
  64   2.0000      -0.266262        -7.2454 
  65   2.0000      -0.260157        -7.0792 
  66   2.0000      -0.256930        -6.9914 
  67   2.0000      -0.253365        -6.8944 
  68   2.0000      -0.241512        -6.5719 
  69   2.0000      -0.211978        -5.7682 
  70   2.0000      -0.195634        -5.3235 
  71   2.0000      -0.173231        -4.7139 
  72   2.0000      -0.138385        -3.7657 
  73   0.0000       0.056349         1.5333 
  74   0.0000       0.058308         1.5866 
  75   0.0000       0.081680         2.2226 
  76   0.0000       0.090725         2.4688 
  77   0.0000       0.133087         3.6215 
  78   0.0000       0.168985         4.5983 
  79   0.0000       0.172838         4.7032 
  80   0.0000       0.214232         5.8295 
  81   0.0000       0.235144         6.3986 
  82   0.0000       0.261591         7.1183 
  83   0.0000       0.329400         8.9634 
*Only the first 10 virtual orbitals were printed.

                    ********************************
                    * MULLIKEN POPULATION ANALYSIS *
                    ********************************

-----------------------
MULLIKEN ATOMIC CHARGES
-----------------------
   0 C :   -0.086884
   1 C :   -0.091584
   2 C :    0.075880
   3 C :    0.094087
   4 C :   -0.095619
   5 C :    0.003101
   6 Cl:   -0.111855
   7 O :   -0.244360
   8 O :   -0.182303
   9 C :    0.115557
  10 C :    0.005544
  11 C :   -0.064997
  12 C :    0.008299
  13 C :   -0.067051
  14 C :   -0.083516
  15 Cl:   -0.097929
  16 Cl:   -0.089757
  17 H :    0.099537
  18 H :    0.103472
  19 H :    0.106477
  20 H :    0.255887
  21 H :    0.120543
  22 H :    0.112957
  23 H :    0.114515
Sum of atomic charges:    0.0000000

--------------------------------
MULLIKEN REDUCED ORBITAL CHARGES
--------------------------------
  0 C s       :     3.129031  s :     3.129031
      pz      :     1.039178  p :     2.957853
      px      :     0.972571
      py      :     0.946104

  1 C s       :     3.135472  s :     3.135472
      pz      :     1.021717  p :     2.956112
      px      :     0.944907
      py      :     0.989488

  2 C s       :     3.086371  s :     3.086371
      pz      :     1.102821  p :     2.837749
      px      :     0.773382
      py      :     0.961546

  3 C s       :     3.092027  s :     3.092027
      pz      :     1.043573  p :     2.813886
      px      :     0.902234
      py      :     0.868079

  4 C s       :     3.123667  s :     3.123667
      pz      :     1.060113  p :     2.971952
      px      :     0.920812
      py      :     0.991027

  5 C s       :     3.137145  s :     3.137145
      pz      :     1.079367  p :     2.859754
      px      :     0.800298
      py      :     0.980090

  6 Cls       :     5.955819  s :     5.955819
      pz      :     3.942386  p :    11.156036
      px      :     3.290182
      py      :     3.923469

  7 O s       :     3.834335  s :     3.834335
      pz      :     1.783238  p :     4.410025
      px      :     1.149252
      py      :     1.477535

  8 O s       :     3.791240  s :     3.791240
      pz      :     1.646490  p :     4.391063
      px      :     1.306985
      py      :     1.437588

  9 C s       :     3.095212  s :     3.095212
      pz      :     0.946375  p :     2.789230
      px      :     0.994665
      py      :     0.848191

 10 C s       :     3.136090  s :     3.136090
      pz      :     0.872860  p :     2.858366
      px      :     0.989885
      py      :     0.995620

 11 C s       :     3.132383  s :     3.132383
      pz      :     0.957877  p :     2.932614
      px      :     1.006274
      py      :     0.968463

 12 C s       :     3.134102  s :     3.134102
      pz      :     0.970985  p :     2.857599
      px      :     1.016726
      py      :     0.869887

 13 C s       :     3.136827  s :     3.136827
      pz      :     1.004688  p :     2.930225
      px      :     0.970596
      py      :     0.954941

 14 C s       :     3.137225  s :     3.137225
      pz      :     0.946311  p :     2.946291
      px      :     1.012903
      py      :     0.987077

 15 Cls       :     5.956593  s :     5.956593
      pz      :     3.800807  p :    11.141336
      px      :     3.916527
      py      :     3.424002

 16 Cls       :     5.957452  s :     5.957452
      pz      :     3.427885  p :    11.132305
      px      :     3.775830
      py      :     3.928589

 17 H s       :     0.900463  s :     0.900463

 18 H s       :     0.896528  s :     0.896528

 19 H s       :     0.893523  s :     0.893523

 20 H s       :     0.744113  s :     0.744113

 21 H s       :     0.879457  s :     0.879457

 22 H s       :     0.887043  s :     0.887043

 23 H s       :     0.885485  s :     0.885485



                     *******************************
                     * LOEWDIN POPULATION ANALYSIS *
                     *******************************

----------------------
LOEWDIN ATOMIC CHARGES
----------------------
   0 C :   -0.065642
   1 C :   -0.063651
   2 C :    0.038790
   3 C :    0.064583
   4 C :   -0.084228
   5 C :   -0.003390
   6 Cl:   -0.071352
   7 O :   -0.133075
   8 O :   -0.083701
   9 C :    0.081672
  10 C :   -0.015615
  11 C :   -0.048647
  12 C :   -0.001346
  13 C :   -0.038940
  14 C :   -0.056592
  15 Cl:   -0.059152
  16 Cl:   -0.051508
  17 H :    0.059238
  18 H :    0.062862
  19 H :    0.065859
  20 H :    0.186834
  21 H :    0.076021
  22 H :    0.069449
  23 H :    0.071530

-------------------------------
LOEWDIN REDUCED ORBITAL CHARGES
-------------------------------
  0 C s       :     3.012467  s :     3.012467
      pz      :     1.041855  p :     3.053176
      px      :     1.014325
      py      :     0.996996

  1 C s       :     3.017007  s :     3.017007
      pz      :     1.023531  p :     3.046643
      px      :     1.001701
      py      :     1.021411

  2 C s       :     3.011557  s :     3.011557
      pz      :     1.101378  p :     2.949653
      px      :     0.837076
      py      :     1.011199

  3 C s       :     3.014108  s :     3.014108
      pz      :     1.042705  p :     2.921309
      px      :     0.950569
      py      :     0.928036

  4 C s       :     3.011202  s :     3.011202
      pz      :     1.063644  p :     3.073026
      px      :     0.986718
      py      :     1.022664

  5 C s       :     3.041251  s :     3.041251
      pz      :     1.077157  p :     2.962138
      px      :     0.861946
      py      :     1.023035

  6 Cls       :     5.906205  s :     5.906205
      pz      :     3.940315  p :    11.165147
      px      :     3.300386
      py      :     3.924446

  7 O s       :     3.684788  s :     3.684788
      pz      :     1.783724  p :     4.448287
      px      :     1.170007
      py      :     1.494555

  8 O s       :     3.653258  s :     3.653258
      pz      :     1.652229  p :     4.430443
      px      :     1.325507
      py      :     1.452707

  9 C s       :     3.018367  s :     3.018367
      pz      :     0.983788  p :     2.899961
      px      :     1.022950
      py      :     0.893224

 10 C s       :     3.047007  s :     3.047007
      pz      :     0.917744  p :     2.968608
      px      :     1.021487
      py      :     1.029376

 11 C s       :     3.017756  s :     3.017756
      pz      :     1.001571  p :     3.030891
      px      :     1.023393
      py      :     1.005927

 12 C s       :     3.039816  s :     3.039816
      pz      :     1.005724  p :     2.961530
      px      :     1.040520
      py      :     0.915286

 13 C s       :     3.017541  s :     3.017541
      pz      :     1.023994  p :     3.021400
      px      :     0.999010
      py      :     0.998396

 14 C s       :     3.019261  s :     3.019261
      pz      :     0.989943  p :     3.037331
      px      :     1.028672
      py      :     1.018716

 15 Cls       :     5.907486  s :     5.907486
      pz      :     3.803012  p :    11.151666
      px      :     3.916402
      py      :     3.432251

 16 Cls       :     5.909206  s :     5.909206
      pz      :     3.435805  p :    11.142301
      px      :     3.777769
      py      :     3.928728

 17 H s       :     0.940762  s :     0.940762

 18 H s       :     0.937138  s :     0.937138

 19 H s       :     0.934141  s :     0.934141

 20 H s       :     0.813166  s :     0.813166

 21 H s       :     0.923979  s :     0.923979

 22 H s       :     0.930551  s :     0.930551

 23 H s       :     0.928470  s :     0.928470



                      *****************************
                      * MAYER POPULATION ANALYSIS *
                      *****************************

  NA   - Mulliken gross atomic population
  ZA   - Total nuclear charge
  QA   - Mulliken gross atomic charge
  VA   - Mayer's total valence
  BVA  - Mayer's bonded valence
  FA   - Mayer's free valence

  ATOM       NA         ZA         QA         VA         BVA        FA
  0 C      6.0869     6.0000    -0.0869     3.9680     3.9680     0.0000
  1 C      6.0916     6.0000    -0.0916     3.9693     3.9693     0.0000
  2 C      5.9241     6.0000     0.0759     3.9064     3.9064     0.0000
  3 C      5.9059     6.0000     0.0941     3.9373     3.9373    -0.0000
  4 C      6.0956     6.0000    -0.0956     3.9651     3.9651     0.0000
  5 C      5.9969     6.0000     0.0031     3.9235     3.9235     0.0000
  6 Cl    17.1119    17.0000    -0.1119     1.1071     1.1071    -0.0000
  7 O      8.2444     8.0000    -0.2444     2.2403     2.2403    -0.0000
  8 O      8.1823     8.0000    -0.1823     2.3447     2.3447     0.0000
  9 C      5.8844     6.0000     0.1156     3.9196     3.9196    -0.0000
 10 C      5.9945     6.0000     0.0055     3.9242     3.9242    -0.0000
 11 C      6.0650     6.0000    -0.0650     3.9655     3.9655    -0.0000
 12 C      5.9917     6.0000     0.0083     3.9283     3.9283    -0.0000
 13 C      6.0671     6.0000    -0.0671     3.9675     3.9675    -0.0000
 14 C      6.0835     6.0000    -0.0835     3.9664     3.9664     0.0000
 15 Cl    17.0979    17.0000    -0.0979     1.1165     1.1165    -0.0000
 16 Cl    17.0898    17.0000    -0.0898     1.1206     1.1206     0.0000
 17 H      0.9005     1.0000     0.0995     0.9901     0.9901    -0.0000
 18 H      0.8965     1.0000     0.1035     0.9893     0.9893     0.0000
 19 H      0.8935     1.0000     0.1065     0.9887     0.9887    -0.0000
 20 H      0.7441     1.0000     0.2559     0.9345     0.9345     0.0000
 21 H      0.8795     1.0000     0.1205     0.9855     0.9855    -0.0000
 22 H      0.8870     1.0000     0.1130     0.9872     0.9872     0.0000
 23 H      0.8855     1.0000     0.1145     0.9869     0.9869    -0.0000

  Mayer bond orders larger than 0.100000
B(  0-C ,  1-C ) :   1.4324 B(  0-C ,  5-C ) :   1.3829 B(  0-C , 17-H ) :   0.9597 
B(  1-C ,  2-C ) :   1.3727 B(  1-C , 18-H ) :   0.9567 B(  2-C ,  3-C ) :   1.2854 
B(  2-C ,  8-O ) :   0.9998 B(  3-C ,  4-C ) :   1.3475 B(  3-C ,  7-O ) :   1.1191 
B(  4-C ,  5-C ) :   1.4117 B(  4-C , 19-H ) :   0.9569 B(  5-C ,  6-Cl) :   0.9822 
B(  7-O , 20-H ) :   0.8961 B(  8-O ,  9-C ) :   1.0243 B(  9-C , 10-C ) :   1.3299 
B(  9-C , 14-C ) :   1.3519 B( 10-C , 11-C ) :   1.4021 B( 10-C , 16-Cl) :   0.9897 
B( 11-C , 12-C ) :   1.4023 B( 11-C , 14-C ) :   0.1060 B( 11-C , 21-H ) :   0.9542 
B( 12-C , 13-C ) :   1.3843 B( 12-C , 15-Cl) :   0.9881 B( 13-C , 14-C ) :   1.4480 
B( 13-C , 22-H ) :   0.9569 B( 14-C , 23-H ) :   0.9539 

-------
TIMINGS
-------

Total SCF time: 0 days 0 hours 0 min 22 sec 

Total time                  ....      22.285 sec
Sum of individual times     ....      22.237 sec  ( 99.8%)

SCF preparation             ....       0.217 sec  (  1.0%)
Fock matrix formation       ....      21.918 sec  ( 98.4%)
  Startup                   ....       0.013 sec  (  0.1% of F)
  Split-RI-J                ....       1.994 sec  (  9.1% of F)
  Chain of spheres X        ....      13.754 sec  ( 62.8% of F)
  XC integration            ....       2.486 sec  ( 11.3% of F)
    Basis function eval.    ....       1.140 sec  ( 45.9% of XC)
    Density eval.           ....       0.407 sec  ( 16.4% of XC)
    XC-Functional eval.     ....       0.268 sec  ( 10.8% of XC)
    XC-Potential eval.      ....       0.323 sec  ( 13.0% of XC)
  CPCM terms                ....       3.606 sec  ( 16.5% of F)
Diagonalization             ....       0.000 sec  (  0.0%)
Density matrix formation    ....       0.027 sec  (  0.1%)
Total Energy calculation    ....       0.010 sec  (  0.0%)
Population analysis         ....       0.008 sec  (  0.0%)
Orbital Transformation      ....       0.006 sec  (  0.0%)
Orbital Orthonormalization  ....       0.000 sec  (  0.0%)
DIIS solution               ....       0.030 sec  (  0.1%)
SOSCF solution              ....       0.021 sec  (  0.1%)
Finished LeanSCF after  22.3 sec

Maximum memory used throughout the entire LEANSCF-calculation: 55.8 MB

-------------------------   --------------------
FINAL SINGLE POINT ENERGY     -1969.172205505193
-------------------------   --------------------

------------------------------------------------------------------------------
                         ORCA SCF GRADIENT CALCULATION
------------------------------------------------------------------------------

Nuc. rep. gradient        (SHARK) ... done (  0.0 sec)
HCore & Overlap gradient  (SHARK) ... done (  0.1 sec)
Split-RIJ-J gradient      (SHARK) ... done (  0.6 sec)
COSX-gradient                     ... done (  9.5 sec)
XC gradient                       ... done (  2.1 sec)
CPCM gradient                     ... done (  0.5 sec)

------------------
CARTESIAN GRADIENT
------------------

   1   C   :    0.002440614   -0.014006087   -0.002263763
   2   C   :    0.010617188   -0.004331146    0.001031966
   3   C   :    0.028768086   -0.031325078    0.007789616
   4   C   :   -0.003667261    0.014094451   -0.002498307
   5   C   :    0.009834267    0.011044232   -0.000596099
   6   C   :   -0.037925734   -0.012530336   -0.001071697
   7   Cl  :    0.057096881    0.017441046    0.002727154
   8   O   :    0.020655981    0.058426588    0.009485433
   9   O   :   -0.047984781    0.027425165   -0.026783863
  10   C   :    0.015182670   -0.000051666    0.007420609
  11   C   :    0.003742391   -0.020442685    0.025392915
  12   C   :   -0.009005031   -0.001342153   -0.006500741
  13   C   :    0.008942031    0.027228803   -0.014603129
  14   C   :    0.010558619    0.010303770    0.006905692
  15   C   :    0.004144529   -0.010015091    0.012538976
  16   Cl  :   -0.014687064   -0.047580510    0.025777504
  17   Cl  :   -0.020948149    0.015034761   -0.041988362
  18   H   :    0.006919699   -0.005371547   -0.001058185
  19   H   :   -0.004434096   -0.009387074    0.001716476
  20   H   :    0.000468474    0.007672025   -0.000121217
  21   H   :   -0.043185241   -0.031281663   -0.006605174
  22   H   :   -0.006765733   -0.004662315   -0.004184367
  23   H   :    0.002691524   -0.002163660    0.007892020
  24   H   :    0.006540137    0.005820170   -0.000403456

Difference to translation invariance:
           :    0.0000000002   -0.0000000002   -0.0000000001

Difference to rotation invariance:
           :    0.0004005482    0.0000082379   -0.0000176157

Norm of the Cartesian gradient     ...    0.1658982736
RMS gradient                       ...    0.0195512990
MAX gradient                       ...    0.0584265884

-------
TIMINGS
-------

Total SCF gradient time     ....       13.124 sec

One electron gradient       ....       0.077 sec  (  0.6%)
RI-J Coulomb gradient       ....       0.622 sec  (  4.7%)
COSX gradient               ....       9.516 sec  ( 72.5%)
XC gradient                 ....       2.142 sec  ( 16.3%)
CPCM gradient               ....       0.504 sec  (  3.8%)
   A-Matrix (El+Nuc)        ....       0.178 sec  (  1.4%)
   Potential                ....       0.326 sec  (  2.5%)

Maximum memory used throughout the entire SCFGRAD-calculation: 21.0 MB
------------------------------------------------------------------------------
                         ORCA GEOMETRY RELAXATION STEP
------------------------------------------------------------------------------

Reading the OPT-File                    .... done
Getting information on internals        .... done
Copying old internal coords+grads       .... done
Making the new internal coordinates     .... (2022 redundants) done
Validating the new internal coordinates .... (2022 redundants) done
Calculating the B-matrix                .... done
Calculating the G,G- and P matrices     .... done
Transforming gradient to internals      .... done
Projecting the internal gradient        .... done
Number of atoms                         ....  24
Number of internal coordinates          .... 118
Current Energy                          .... -1969.172205505 Eh
Current gradient norm                   ....     0.165898274 Eh/bohr
Maximum allowed component of the step   ....  0.300
Current trust radius                    ....  0.300
Evaluating the initial hessian          ....  (Almloef) done
Projecting the Hessian                  .... done
Forming the augmented Hessian           .... done
Diagonalizing the augmented Hessian     .... done
Last element of RFO vector              ....  0.943721417
Lowest eigenvalues of augmented Hessian:
 -0.047846324  0.021753897  0.024967750  0.025011783  0.025064496
Length of the computed step             ....  0.350465099
Warning: the length of the step is outside the trust region - taking restricted step instead
The input lambda is                     ....     0.019905
   iter:   5  x=    0.012232  g= 1178.775263 f(x)=     3.698377
   iter:  10  x=   -0.054823  g=    2.729645 f(x)=     0.065977
   iter:  15  x=   -0.086213  g=    0.553962 f(x)=     0.000000
The output lambda is                    ....    -0.086213 (16 iterations)
The final length of the internal step   ....  0.300000000
Converting the step to Cartesian space:
 Initial RMS(Int)=    0.0276172385
Transforming coordinates:
 Iter   0:  RMS(Cart)=    0.0942110013 RMS(Int)=    0.0278092752
 Iter   5:  RMS(Cart)=    0.0000000161 RMS(Int)=    0.0000000122
done
Storing new coordinates                 .... done

                                .--------------------.
          ----------------------|Geometry convergence|-------------------------
          Item                value                   Tolerance       Converged
          ---------------------------------------------------------------------
          RMS gradient        0.0144524153            0.0001000000      NO
          MAX gradient        0.0597609141            0.0003000000      NO
          RMS step            0.0276172385            0.0020000000      NO
          MAX step            0.1180636327            0.0040000000      NO
          ........................................................
          Max(Bonds)      0.0625      Max(Angles)    1.38
          Max(Dihed)        2.61      Max(Improp)    0.00
          ---------------------------------------------------------------------

The optimization has not yet converged - more geometry cycles are needed


    ---------------------------------------------------------------------------
                         Redundant Internal Coordinates
                            (Angstroem and degrees)

        Definition                    Value    dE/dq     Step     New-Value
    ----------------------------------------------------------------------------
     1. B(C   1,C   0)                1.3955 -0.013400  0.0097    1.4052   
     2. B(C   2,C   1)                1.3984 -0.021015  0.0162    1.4146   
     3. B(C   3,C   2)                1.3954 -0.041127  0.0329    1.4283   
     4. B(C   4,C   3)                1.3962 -0.024867  0.0193    1.4156   
     5. B(C   5,C   4)                1.3898 -0.023620  0.0174    1.4073   
     6. B(C   5,C   0)                1.3954 -0.023110  0.0169    1.4123   
     7. B(Cl  6,C   5)                1.7181 -0.059761  0.0625    1.7806   
     8. B(O   7,C   3)                1.3671 -0.035355  0.0279    1.3950   
     9. B(O   8,C   2)                1.3788 -0.045885  0.0365    1.4154   
    10. B(C   9,O   8)                1.3840 -0.032039  0.0258    1.4097   
    11. B(C  10,C   9)                1.4009 -0.027601  0.0213    1.4222   
    12. B(C  11,C  10)                1.3994 -0.014568  0.0113    1.4107   
    13. B(C  12,C  11)                1.3910 -0.023592  0.0177    1.4086   
    14. B(C  13,C  12)                1.3934 -0.024925  0.0187    1.4121   
    15. B(C  14,C   9)                1.4031 -0.021410  0.0165    1.4196   
    16. B(C  14,C  13)                1.3966 -0.010149  0.0076    1.4042   
    17. B(Cl 15,C  12)                1.7204 -0.056066  0.0590    1.7794   
    18. B(Cl 16,C  10)                1.7268 -0.049084  0.0527    1.7795   
    19. B(H  17,C   0)                1.0866 -0.008716  0.0102    1.0968   
    20. B(H  18,C   1)                1.0856 -0.010008  0.0117    1.0973   
    21. B(H  19,C   4)                1.0877 -0.007591  0.0089    1.0967   
    22. B(H  20,O   8)                2.2511  0.000473 -0.0126    2.2385   
    23. B(H  20,O   7)                0.9753 -0.052752  0.0478    1.0231   
    24. B(H  21,C  11)                1.0873 -0.009162  0.0108    1.0981   
    25. B(H  22,C  13)                1.0882 -0.008477  0.0100    1.0982   
    26. B(H  23,C  14)                1.0882 -0.007854  0.0093    1.0974   
    27. A(C   1,C   0,H  17)          119.62 -0.000949    0.17    119.78   
    28. A(C   1,C   0,C   5)          119.97  0.000203   -0.11    119.86   
    29. A(C   5,C   0,H  17)          120.41  0.000741   -0.05    120.36   
    30. A(C   0,C   1,H  18)          118.97 -0.001461    0.20    119.17   
    31. A(C   2,C   1,H  18)          121.00  0.003530   -0.45    120.54   
    32. A(C   0,C   1,C   2)          120.01 -0.002102    0.27    120.28   
    33. A(C   1,C   2,C   3)          119.13 -0.002394    0.28    119.42   
    34. A(C   1,C   2,O   8)          123.25 -0.011913    1.08    124.34   
    35. A(C   3,C   2,O   8)          117.61  0.014342   -1.38    116.22   
    36. A(C   2,C   3,C   4)          120.93  0.008732   -0.95    119.97   
    37. A(C   4,C   3,O   7)          117.40 -0.006779    0.43    117.84   
    38. A(C   2,C   3,O   7)          121.67 -0.001952    0.52    122.18   
    39. A(C   3,C   4,C   5)          119.22 -0.000939    0.23    119.45   
    40. A(C   5,C   4,H  19)          121.07 -0.000765    0.05    121.11   
    41. A(C   3,C   4,H  19)          119.71  0.001704   -0.28    119.44   
    42. A(C   0,C   5,Cl  6)          119.65  0.001085   -0.10    119.55   
    43. A(C   0,C   5,C   4)          120.44 -0.003677    0.37    120.80   
[...]
      px      :     0.779743
      py      :     0.933664

  3 C s       :     3.125345  s :     3.125345
      pz      :     1.020761  p :     2.788039
      px      :     0.862705
      py      :     0.904573

  4 C s       :     3.138658  s :     3.138658
      pz      :     1.058739  p :     2.957314
      px      :     0.908142
      py      :     0.990433

  5 C s       :     3.170606  s :     3.170606
      pz      :     1.064271  p :     2.800846
      px      :     0.794112
      py      :     0.942463

  6 Cls       :     5.965705  s :     5.965705
      pz      :     3.956260  p :    11.180690
      px      :     3.367487
      py      :     3.856943

  7 O s       :     3.866056  s :     3.866056
      pz      :     1.798680  p :     4.351242
      px      :     1.118990
      py      :     1.433572

  8 O s       :     3.831739  s :     3.831739
      pz      :     1.579906  p :     4.328304
      px      :     1.278953
      py      :     1.469445

  9 C s       :     3.125377  s :     3.125377
      pz      :     0.920329  p :     2.771251
      px      :     0.957160
      py      :     0.893761

 10 C s       :     3.162941  s :     3.162941
      pz      :     0.859165  p :     2.813907
      px      :     0.948214
      py      :     1.006528

 11 C s       :     3.145664  s :     3.145664
      pz      :     0.942833  p :     2.920329
      px      :     1.005409
      py      :     0.972087

 12 C s       :     3.163838  s :     3.163838
      pz      :     0.927582  p :     2.807924
      px      :     0.968043
      py      :     0.912299

 13 C s       :     3.148291  s :     3.148291
      pz      :     1.001631  p :     2.916622
      px      :     0.950202
      py      :     0.964788

 14 C s       :     3.145583  s :     3.145583
      pz      :     0.935991  p :     2.935783
      px      :     1.008321
      py      :     0.991471

 15 Cls       :     5.965574  s :     5.965574
      pz      :     3.730538  p :    11.162981
      px      :     3.861073
      py      :     3.571371

 16 Cls       :     5.965487  s :     5.965487
      pz      :     3.431329  p :    11.152245
      px      :     3.813761
      py      :     3.907155

 17 H s       :     0.894273  s :     0.894273

 18 H s       :     0.890518  s :     0.890518

 19 H s       :     0.889754  s :     0.889754

 20 H s       :     0.769055  s :     0.769055

 21 H s       :     0.873808  s :     0.873808

 22 H s       :     0.882728  s :     0.882728

 23 H s       :     0.884556  s :     0.884556



                     *******************************
                     * LOEWDIN POPULATION ANALYSIS *
                     *******************************

----------------------
LOEWDIN ATOMIC CHARGES
----------------------
   0 C :   -0.062522
   1 C :   -0.051479
   2 C :    0.031665
   3 C :    0.063698
   4 C :   -0.080873
   5 C :    0.026517
   6 Cl:   -0.113504
   7 O :   -0.127592
   8 O :   -0.077073
   9 C :    0.076203
  10 C :    0.005590
  11 C :   -0.045063
  12 C :    0.020469
  13 C :   -0.034687
  14 C :   -0.054621
  15 Cl:   -0.096139
  16 Cl:   -0.085217
  17 H :    0.064879
  18 H :    0.068113
  19 H :    0.069221
  20 H :    0.174159
  21 H :    0.081520
  22 H :    0.073691
  23 H :    0.073046

-------------------------------
LOEWDIN REDUCED ORBITAL CHARGES
-------------------------------
  0 C s       :     3.024536  s :     3.024536
      pz      :     1.043461  p :     3.037986
      px      :     1.010940
      py      :     0.983585

  1 C s       :     3.028169  s :     3.028169
      pz      :     1.009493  p :     3.023310
      px      :     0.989953
      py      :     1.023864

  2 C s       :     3.046829  s :     3.046829
      pz      :     1.101695  p :     2.921507
      px      :     0.836643
      py      :     0.983169

  3 C s       :     3.046308  s :     3.046308
      pz      :     1.020486  p :     2.889994
      px      :     0.912141
      py      :     0.957367

  4 C s       :     3.025473  s :     3.025473
      pz      :     1.061463  p :     3.055399
      px      :     0.973969
      py      :     1.019967

  5 C s       :     3.075652  s :     3.075652
      pz      :     1.062459  p :     2.897830
      px      :     0.847808
      py      :     0.987564

  6 Cls       :     5.928950  s :     5.928950
      pz      :     3.954785  p :    11.184554
      px      :     3.371881
      py      :     3.857888

  7 O s       :     3.738525  s :     3.738525
      pz      :     1.798746  p :     4.389067
      px      :     1.144566
      py      :     1.445755

  8 O s       :     3.714277  s :     3.714277
      pz      :     1.587597  p :     4.362796
      px      :     1.294623
      py      :     1.480577

  9 C s       :     3.046995  s :     3.046995
      pz      :     0.957707  p :     2.876801
      px      :     0.993912
      py      :     0.925182

 10 C s       :     3.074591  s :     3.074591
      pz      :     0.900249  p :     2.919819
      px      :     0.987476
      py      :     1.032094

 11 C s       :     3.029762  s :     3.029762
      pz      :     0.989212  p :     3.015301
      px      :     1.025005
      py      :     1.001084

 12 C s       :     3.071077  s :     3.071077
      pz      :     0.964811  p :     2.908454
      px      :     1.002402
      py      :     0.941241

 13 C s       :     3.028848  s :     3.028848
      pz      :     1.021281  p :     3.005840
      px      :     0.990331
      py      :     0.994227

 14 C s       :     3.028607  s :     3.028607
      pz      :     0.981595  p :     3.026014
      px      :     1.028586
      py      :     1.015833

 15 Cls       :     5.928079  s :     5.928079
      pz      :     3.732313  p :    11.168060
      px      :     3.861676
      py      :     3.574071

 16 Cls       :     5.927690  s :     5.927690
      pz      :     3.435760  p :    11.157527
      px      :     3.814790
      py      :     3.906977

 17 H s       :     0.935121  s :     0.935121

 18 H s       :     0.931887  s :     0.931887

 19 H s       :     0.930779  s :     0.930779

 20 H s       :     0.825841  s :     0.825841

 21 H s       :     0.918480  s :     0.918480

 22 H s       :     0.926309  s :     0.926309

 23 H s       :     0.926954  s :     0.926954



                      *****************************
                      * MAYER POPULATION ANALYSIS *
                      *****************************

  NA   - Mulliken gross atomic population
  ZA   - Total nuclear charge
  QA   - Mulliken gross atomic charge
  VA   - Mayer's total valence
  BVA  - Mayer's bonded valence
  FA   - Mayer's free valence

  ATOM       NA         ZA         QA         VA         BVA        FA
  0 C      6.0849     6.0000    -0.0849     3.9620     3.9620    -0.0000
  1 C      6.0834     6.0000    -0.0834     3.9649     3.9649    -0.0000
  2 C      5.9387     6.0000     0.0613     3.8971     3.8971     0.0000
  3 C      5.9134     6.0000     0.0866     3.9376     3.9376     0.0000
  4 C      6.0960     6.0000    -0.0960     3.9594     3.9594     0.0000
  5 C      5.9715     6.0000     0.0285     3.9039     3.9039     0.0000
  6 Cl    17.1464    17.0000    -0.1464     1.0670     1.0670    -0.0000
  7 O      8.2173     8.0000    -0.2173     2.2674     2.2674     0.0000
  8 O      8.1600     8.0000    -0.1600     2.3525     2.3525     0.0000
  9 C      5.8966     6.0000     0.1034     3.9175     3.9175     0.0000
 10 C      5.9768     6.0000     0.0232     3.9076     3.9076    -0.0000
 11 C      6.0660     6.0000    -0.0660     3.9604     3.9604    -0.0000
 12 C      5.9718     6.0000     0.0282     3.9090     3.9090    -0.0000
 13 C      6.0649     6.0000    -0.0649     3.9629     3.9629    -0.0000
 14 C      6.0814     6.0000    -0.0814     3.9615     3.9615     0.0000
 15 Cl    17.1286    17.0000    -0.1286     1.0793     1.0793     0.0000
 16 Cl    17.1177    17.0000    -0.1177     1.0873     1.0873     0.0000
 17 H      0.8943     1.0000     0.1057     0.9888     0.9888    -0.0000
 18 H      0.8905     1.0000     0.1095     0.9880     0.9880    -0.0000
 19 H      0.8898     1.0000     0.1102     0.9878     0.9878     0.0000
 20 H      0.7691     1.0000     0.2309     0.9467     0.9467     0.0000
 21 H      0.8738     1.0000     0.1262     0.9841     0.9841    -0.0000
 22 H      0.8827     1.0000     0.1173     0.9862     0.9862    -0.0000
 23 H      0.8846     1.0000     0.1154     0.9867     0.9867    -0.0000

  Mayer bond orders larger than 0.100000
B(  0-C ,  1-C ) :   1.4056 B(  0-C ,  5-C ) :   1.3980 B(  0-C , 17-H ) :   0.9574 
B(  1-C ,  2-C ) :   1.4109 B(  1-C , 18-H ) :   0.9549 B(  2-C ,  3-C ) :   1.2714 
B(  2-C ,  8-O ) :   0.9672 B(  3-C ,  4-C ) :   1.3451 B(  3-C ,  7-O ) :   1.1448 
B(  4-C ,  5-C ) :   1.4094 B(  4-C , 19-H ) :   0.9555 B(  5-C ,  6-Cl) :   0.9495 
B(  7-O , 20-H ) :   0.8650 B(  8-O ,  9-C ) :   1.0235 B(  9-C , 10-C ) :   1.3209 
B(  9-C , 14-C ) :   1.3601 B( 10-C , 11-C ) :   1.4208 B( 10-C , 13-C ) :   0.1002 
B( 10-C , 16-Cl) :   0.9616 B( 11-C , 12-C ) :   1.3900 B( 11-C , 14-C ) :   0.1028 
B( 11-C , 21-H ) :   0.9517 B( 12-C , 13-C ) :   1.3958 B( 12-C , 15-Cl) :   0.9582 
B( 13-C , 14-C ) :   1.4360 B( 13-C , 22-H ) :   0.9547 B( 14-C , 23-H ) :   0.9497 


-------
TIMINGS
-------

Total SCF time: 0 days 0 hours 0 min 10 sec 

Total time                  ....      10.611 sec
Sum of individual times     ....      10.569 sec  ( 99.6%)

SCF preparation             ....       0.212 sec  (  2.0%)
Fock matrix formation       ....      10.306 sec  ( 97.1%)
  Startup                   ....       0.004 sec  (  0.0% of F)
  Split-RI-J                ....       0.640 sec  (  6.2% of F)
  Chain of spheres X        ....       7.657 sec  ( 74.3% of F)
  XC integration            ....       0.805 sec  (  7.8% of F)
    Basis function eval.    ....       0.353 sec  ( 43.9% of XC)
    Density eval.           ....       0.145 sec  ( 18.0% of XC)
    XC-Functional eval.     ....       0.093 sec  ( 11.6% of XC)
    XC-Potential eval.      ....       0.106 sec  ( 13.2% of XC)
  CPCM terms                ....       1.177 sec  ( 11.4% of F)
Diagonalization             ....       0.000 sec  (  0.0%)
Density matrix formation    ....       0.008 sec  (  0.1%)
Total Energy calculation    ....       0.004 sec  (  0.0%)
Population analysis         ....       0.023 sec  (  0.2%)
Orbital Transformation      ....       0.003 sec  (  0.0%)
Orbital Orthonormalization  ....       0.000 sec  (  0.0%)
DIIS solution               ....       0.003 sec  (  0.0%)
SOSCF solution              ....       0.010 sec  (  0.1%)
Finished LeanSCF after  10.7 sec

Maximum memory used throughout the entire LEANSCF-calculation: 58.8 MB

-------------------------   --------------------
FINAL SINGLE POINT ENERGY     -1969.207809677946
-------------------------   --------------------

                                *** OPTIMIZATION RUN DONE ***


------------------------------------------------------------------------------
                              ORCA PROPERTY CALCULATIONS
------------------------------------------------------------------------------

GBWName                                 ... Triclosan\Triclosan_B3LYP_STO-3G\Triclosan_B3LYP_STO-3G.orcainp.gbw
Number of atoms                         ...     24
Number of basis functions               ...    104
Max core memory                         ...   1024 MB

Electric properties:
Dipole moment                           ... YES
Quadrupole moment                       ...  NO
Static polarizability (Dipole/Dipole)   ...  NO
Static polarizability (Dipole/Quad.)    ...  NO
Static polarizability (Quad./Quad.)     ...  NO
Static polarizability (Velocity)        ...  NO

Atomic electric properties:
Dipole moment                           ...  NO
Quadrupole moment                       ...  NO
Static polarizability                   ...  NO

Choice of electric origin               ... Center of mass
Position of electric origin             ...     4.684850     3.784655    -1.043447

General magnetic properties:
Magnetizability                         ...  NO

EPR properties:
g-Tensor (aka g-matrix)                 ...  NO
Zero-Field splitting spin-orbit         ...  NO
Zero-field splitting spin-spin          ...  NO
Hyperfine couplings                     ...  NO (   0 nuclei)
Quadrupole couplings                    ...  NO (   0 nuclei)
Contact density                         ...  NO (   0 nuclei)

NMR properties:
Chemical shifts                         ...  NO (   0 nuclei)
Spin-rotation constants                 ...  NO (   0 nuclei)
Spin-spin couplings                     ...  NO (   0 nuclei,    0 pairs)

Choice of magnetic origin               ... GIAO
Position of magnetic origin             ...     0.000000     0.000000     0.000000

Properties with geometric perturbations:
SCF Hessian                             ...  NO
IR spectrum                             ...  NO
VCD spectrum                            ...  NO
X-ray spectroscopy properties:
SCF XES/XAS/RIXS spectra                ...  NO


-------------
DIPOLE MOMENT
-------------

Method             : SCF
Type of density    : Electron Density
Multiplicity       :   1
Irrep              :   0
Energy             : -1969.2078096779464431 Eh
Relativity type    : 
Basis              : AO
                                X                 Y                 Z
Electronic contribution:      4.938998892       2.868059446       1.026804965
Nuclear contribution   :     -4.789220532      -2.380304248      -1.441992104
                        -----------------------------------------
Total Dipole Moment    :      0.149778360       0.487755198      -0.415187138
                        -----------------------------------------
Magnitude (a.u.)       :      0.657813842
Magnitude (Debye)      :      1.672029907



--------------------
Rotational spectrum 
--------------------
 
Rotational constants in cm-1:             0.021299             0.004798             0.004161 
Rotational constants in MHz :           638.513843           143.830029           124.750244 

Dipole components along the rotational axes: 
x,y,z [a.u.] :    -0.506083    -0.419973    -0.014890 
x,y,z [Debye]:    -1.286361    -1.067486    -0.037847 

 

Dipole moment calculation done in   0.0 sec 

Maximum memory used throughout the entire PROP-calculation: 8.5 MB

--------------------------------
SUGGESTED CITATIONS FOR THIS RUN
--------------------------------

Below you find a list of papers that are relevant to this ORCA run
We neither can nor want to force you to cite these papers, but we appreciate if you do
You receive ORCA, which is the product of decades of hard work by many enthusiastic individuals, for free
The only thing we kindly ask in return is that you cite our papers,
We deeply appreciate it, if you show your appreciation for ORCA by not just citing the generic ORCA reference.

Please note that relegating all ORCA citations to the supporting information does *not* help us.
SI sections are not indexed - citations you put there will not count into any citation statistics
But we need these citations in order to attract the funding resources that allow us to do what we are doing

Therefore, if you are a happy ORCA user, please consider citing a few of the papers listed below in the main body of your paper

In addition to the list printed below, the program has created the file Triclosan\Triclosan_B3LYP_STO-3G\Triclosan_B3LYP_STO-3G.orcainp.bibtex that contains the list in bibtex format
You can import this file easily into all common literature databanks and citation aid programs


List of essential papers. We consider these as the minimum necessary citations

  1. Neese,F.
     Software update: the ORCA program system, version 5.0
     WIRES Comput. Molec. Sci., 2022 12(1)e1606
     doi.org/10.1002/wcms.1606

List of papers to cite with high priority. The work reported in these papers was absolutely
necessary for this run to complete.
Our perspective: the developers of density functionals and basis sets usually get cited in chemistry papers
Good! But without the algorithms to do something with them, the functionals or basis sets would not do anything.
Hence, in our opinion, the algorithm design and method developments papers are equally worthy of getting cited

  1. Neese,F.
     An improvement of the resolution of the identity approximation for the formation of the Coulomb matrix
     J. Comp. Chem., 2003 24(14)1740-1747
     doi.org/10.1002/jcc.10318
  2. Neese,F.; Wennmohs,F.; Hansen,A.; Becker,U.
     Efficient, approximate and parallel Hartree-Fock and hybrid DFT calculations. A 'chain-of-spheres' algorithm for the Hartree-Fock exchange
     Chem. Phys., 2009 356(1-3)98-109
     doi.org/10.1016/j.chemphys.2008.10.036
  3. Garcia-Rates,M.; Neese,F.
     Effect of the Solute Cavity on the Solvation Energy and its Derivatives within the Framework of the Gaussian Charge Scheme
     J. Comput. Chem., 2020 41 922-939
     doi.org/10.1002/jcc.26139
  4. Helmich-Paris,B.; de Souza,B.; Neese,F.; Izsák,R.
     An improved chain of spheres for exchange algorithm
     J. Chem. Phys., 2021 155 104109
     doi.org/doi: 10.1063/5.0058766.
  5. Neese,F.
     The SHARK Integral Generation and Digestion System
     J. Comp. Chem., 2022  1-16
     doi.org/10.1002/jcc.26942

List of suggested additional citations. These are papers that are important in the 'surrounding' of 
of this run, or papers that preceded the highly important papers. If you like your results we are grateful for a citation.

  1. Izsak,R.; Neese,F.
     An overlap fitted chain of spheres exchange method
     J. Chem. Phys., 2011 135 144105
     doi.org/10.1063/1.3646921
  2. Izsak,R.; Hansen,A.; Neese,F.
     The resolution of identity and chain of spheres approximations for the LPNO-CCSD singles Fock term
     Molec. Phys., 2012 110 2413-2417
     doi.org/10.1080/00268976.2012.687466
  3. Neese,F.
     The ORCA program system
     WIRES Comput. Molec. Sci., 2012 2(1)73-78
     doi.org/10.1002/wcms.81
  4. Izsak,R.; Neese,F.; Klopper,W.
     Robust fitting techniques in the chain of spheres approximation to the Fock exchange: The role of the complementary space
     J. Chem. Phys., 2013 139 
     doi.org/10.1063/1.4819264
  5. Neese,F.
     Software update: the ORCA program system, version 4.0
     WIRES Comput. Molec. Sci., 2018 8(1)1-6
     doi.org/10.1002/wcms.1327
  6. Neese,F.; Wennmohs,F.; Becker,U.; Riplinger,C.
     The ORCA quantum chemistry program package
     J. Chem. Phys., 2020 152 Art. No. L224108
     doi.org/10.1063/5.0004608

List of optional additional citations

  1. Neese,F.
     Approximate second-order SCF convergence for spin unrestricted wavefunctions
     Chem. Phys. Lett., 2000 325(1-3)93-98
     doi.org/10.1016/s0009-2614(00)00662-x

Timings for individual modules:

Sum of individual times          ...      383.747 sec (=   6.396 min)
Startup calculation              ...       15.788 sec (=   0.263 min)   4.1 %
SCF iterations                   ...      213.579 sec (=   3.560 min)  55.7 %
Property calculations            ...        0.069 sec (=   0.001 min)   0.0 %
SCF Gradient evaluation          ...      154.212 sec (=   2.570 min)  40.2 %
Geometry relaxation              ...        0.099 sec (=   0.002 min)   0.0 %
                             ****ORCA TERMINATED NORMALLY****
TOTAL RUN TIME: 0 days 0 hours 6 minutes 24 seconds 871 msec
