
                                 *****************
                                 * O   R   C   A *
                                 *****************

                                            #,                                       
                                            ###                                      
                                            ####                                     
                                            #####                                    
                                            ######                                   
                                           ########,                                 
                                     ,,################,,,,,                         
                               ,,#################################,,                 
                          ,,##########################################,,             
                       ,#########################################, ''#####,          
                    ,#############################################,,   '####,        
                  ,##################################################,,,,####,       
                ,###########''''           ''''###############################       
              ,#####''   ,,,,##########,,,,          '''####'''          '####       
            ,##' ,,,,###########################,,,                        '##       
           ' ,,###''''                  '''############,,,                           
         ,,##''                                '''############,,,,        ,,,,,,###''
      ,#''                                            '''#######################'''  
     '                                                          ''''####''''         
             ,#######,   #######,   ,#######,      ##                                
            ,#'     '#,  ##    ##  ,#'     '#,    #''#        ,####,   ,####,        
            ##       ##  ##   ,#'  ##            #'  '#       #'       #'  '#        
            ##       ##  #######   ##           ,######,      #####,   #    #        
            '#,     ,#'  ##    ##  '#,     ,#' ,#      #,     #,   #   #,  ,#        
             '#######'   ##     ##  '#######'  #'      '#     '####' # '####'        



                #########################################################
                #                        -***-                          #
                #          Department of theory and spectroscopy        #
                #                                                       #
                #                      Frank Neese                      #
                #                                                       #
                #     Directorship, Architecture, Infrastructure        #
                #                    SHARK, DRIVERS                     #
                #        Core code/Algorithms in most modules           #
                #                                                       #
                #        Max Planck Institute fuer Kohlenforschung      #
                #                Kaiser Wilhelm Platz 1                 #
                #                 D-45470 Muelheim/Ruhr                 #
                #                      Germany                          #
                #                                                       #
                #                  All rights reserved                  #
                #                        -***-                          #
                #########################################################


                         Program Version 6.0.0  -   RELEASE   -


 With contributions from (in alphabetic order):
   Daniel Aravena         : Magnetic Suceptibility
   Michael Atanasov       : Ab Initio Ligand Field Theory (pilot matlab implementation)
   Alexander A. Auer      : GIAO ZORA, VPT2 properties, NMR spectrum
   Ute Becker             : All parallelization in ORCA, NUMFREQ, NUMCALC
   Giovanni Bistoni       : ED, misc. LED, open-shell LED, HFLD
   Martin Brehm           : Molecular dynamics
   Dmytro Bykov           : pre 5.0 version of the SCF Hessian
   Marcos Casanova-Páez   : Triplet and SCS-CIS(D). UHF-(DLPNO)-IP/EA/STEOM-CCSD. UHF-CVS-IP/STEOM-CCSD
   Vijay G. Chilkuri      : MRCI spin determinant printing, contributions to CSF-ICE
   Pauline Colinet        : FMM embedding
   Dipayan Datta          : RHF DLPNO-CCSD density
   Achintya Kumar Dutta   : EOM-CC, STEOM-CC
   Nicolas Foglia         : Exact transition moments, OPA infrastructure, MCD improvements
   Dmitry Ganyushin       : Spin-Orbit,Spin-Spin,Magnetic field MRCI
   Miquel Garcia          : C-PCM and meta-GGA Hessian, CCSD/C-PCM, Gaussian charge scheme
   Tiago L. C. Gouveia    : GS-ROHF, GS-ROCIS
   Yang Guo               : DLPNO-NEVPT2, F12-NEVPT2, CIM, IAO-localization
   Andreas Hansen         : Spin unrestricted coupled pair/coupled cluster methods
   Ingolf Harden          : AUTO-CI MPn and infrastructure 
   Benjamin Helmich-Paris : MC-RPA, TRAH-(SCF,CASSCF), AVAS, COSX integrals, SCF dyn. polar.
   Lee Huntington         : MR-EOM, pCC
   Robert Izsak           : Overlap fitted RIJCOSX, COSX-SCS-MP3, EOM
   Riya Kayal             : Wick's Theorem for AUTO-CI, AUTO-CI UHF-CCSDT
   Emily Kempfer          : AUTO-CI, RHF CISDT and CCSDT
   Christian Kollmar      : KDIIS, OOCD, Brueckner-CCSD(T), CCSD density, CASPT2, CASPT2-K, improved NEVPT2
   Axel Koslowski         : Symmetry handling
   Simone Kossmann        : Meta GGA functionals, TD-DFT gradient, OOMP2, (MP2 Hessian; deprecated post 5.0)
   Lucas Lang             : DCDCAS
   Marvin Lechner         : AUTO-CI (C++ implementation), FIC-MRCC
   Spencer Leger          : CASSCF response
   Dagmar Lenk            : GEPOL surface, SMD, ORCA-2-JSON
   Dimitrios Liakos       : Extrapolation schemes; Compound Job, initial MDCI parallelization
   Dimitrios Manganas     : Further ROCIS development; embedding schemes. LFT, Crystal Embedding
   Dimitrios Pantazis     : SARC Basis sets
   Anastasios Papadopoulos: AUTO-CI, single reference methods and gradients
   Taras Petrenko         : pre 6.0 DFT Hessian and TD-DFT gradient, (ASA, deprecated), ECA, 1-Electron XAS/XES, NRVS
   Peter Pinski           : DLPNO-MP2, DLPNO-MP2 Gradient
   Christoph Reimann      : Effective Core Potentials
   Marius Retegan         : Local ZFS, SOC
   Christoph Riplinger    : Optimizer, TS searches, QM/MM, DLPNO-CCSD(T), (RO)-DLPNO pert. Triples
   Michael Roemelt        : Original ROCIS implementation
   Masaaki Saitow         : Open-shell DLPNO-CCSD energy and density
   Barbara Sandhoefer     : DKH picture change effects
   Kantharuban Sivalingam : CASSCF convergence/infrastructure, NEVPT2 and variants, FIC-MRCI
   Bernardo de Souza      : ESD, SOC TD-DFT
   Georgi Stoychev        : AutoAux, RI-MP2 NMR, DLPNO-MP2 response, X2C
   Van Anh Tran           : RI-MP2 g-tensors
   Willem Van den Heuvel  : Paramagnetic NMR
   Zikuan Wang            : NOTCH, Electric field optimization 
   Frank Wennmohs         : Technical directorship and infrastructure
   Hang Xu                : AUTO-CI-Response properties 


 We gratefully acknowledge several colleagues who have allowed us to
 interface, adapt or use parts of their codes:
   Stefan Grimme, W. Hujo, H. Kruse, P. Pracht,  : VdW corrections, initial TS optimization,
                  C. Bannwarth, S. Ehlert,         DFT functionals, gCP, sTDA/sTD-DF
                  L. Wittmann, M. Mueller
   Ed Valeev, F. Pavosevic, A. Kumar             : LibInt (2-el integral package), F12 methods
   Garnet Chan, S. Sharma, J. Yang, R. Olivares  : DMRG
   Ulf Ekstrom                                   : XCFun DFT Library
   Mihaly Kallay                                 : mrcc  (arbitrary order and MRCC methods)
   Frank Weinhold                                : gennbo (NPA and NBO analysis)
   Simon Mueller                                 : openCOSMO-RS
   Christopher J. Cramer and Donald G. Truhlar   : smd solvation model
   Lars Goerigk                                  : TD-DFT with DH, B97 family of functionals
   V. Asgeirsson, H. Jonsson                     : NEB implementation
   FAccTs GmbH                                   : IRC, NEB, NEB-TS, DLPNO-Multilevel, CI-OPT
                                                   MM, QMMM, 2- and 3-layer-ONIOM, Crystal-QMMM,
                                                   LR-CPCM, SF, NACMEs, symmetry and pop. for TD-DFT,
                                                   nearIR, NL-DFT gradient (VV10), updates on ESD,
                                                   ML-optimized integration grids, MBIS, APM,
                                                   GOAT, DOCKER, SOLVATOR, interface openCOSMO-RS
   S Lehtola, MJT Oliveira, MAL Marques          : LibXC Library
   Liviu Ungur et al                             : ANISO software


 Your calculation uses the libint2 library for the computation of 2-el integrals
 For citations please refer to: http://libint.valeyev.net

 Your ORCA version has been built with support for libXC version: 6.2.2
 For citations please refer to: https://libxc.gitlab.io

 This ORCA versions uses:
   CBLAS   interface :  Fast vector & matrix operations
   LAPACKE interface :  Fast linear algebra routines
   Shared memory     :  Shared parallel matrices


Warning: RI is on but no J-basis has been assigned. Assigning Def2/J (nothing to worry about!)
================================================================================

----- Orbital basis set information -----
Your calculation utilizes the basis: 6-311+G**
   H, Li - Ne  : R. Krishnan, J. S. Binkley, R. Seeger and J. A. Pople, J. Chem. Phys. 72, 650 (1980).
   Na - Ar     : A. D. McLean and G. S. Chandler J. Chem. Phys. 72, 5639, (1980).
   K  - Ca     : J.-P. Blaudeau, M. P. McGrath, L. A. Curtiss and L. Radom, J. Chem. Phys. 107, 5016 (1997).
   Ga - Kr     : L. A. Curtiss, M. P. McGrath, J.-P. Blandeau, N. E. Davis, R. C. Binning and L. Radom, J. Chem. Phys. 103, 6104 (1995).
   Pol./Diff.
   H, Li - Cl  : T. Clark, J. Chandrasekhar and P. v. R. Schleyer, J. Comp. Chem. 4, 294 (1983).
   H - Ne      : M. J. Frisch, J. A. Pople and J. S. Binkley, J. Chem. Phys. 80, 3265 (1984).

----- AuxJ basis set information -----
Your calculation utilizes the auxiliary basis: def2/J
   F. Weigend, Phys. Chem. Chem. Phys. 8, 1057 (2006).

================================================================================
                                        WARNINGS
                       Please study these warnings very carefully!
================================================================================

WARNING: Old DensityContainer found on disk!
         Will remove this file - 
         If you want to keep old densities, please start your calculation with a different basename. 


WARNING: Geometry Optimization
  ===> : Switching off AutoStart
         For restart on a previous wavefunction, please use MOREAD

================================================================================
                                       INPUT FILE
================================================================================
NAME = Triclosan\Triclosan_B3LYP_6-311+G\Triclosan_B3LYP_6-311+G.orcainp
|  1> # ORCA input file
|  2> # 
|  3> !B3LYP 6-311+G** Opt CPCM(WATER)
|  4> * xyz 0 1
|  5>    C       -0.49838         1.45672         0.09896
|  6>    C        0.83636         1.86187         0.13987
|  7>    C        1.85850         0.90964         0.07692
|  8>    C        1.52705        -0.44553         0.10327
|  9>    C        0.19399        -0.85911         0.06588
| 10>    C       -0.81311         0.09845         0.04328
| 11>   Cl       -2.45804        -0.38995        -0.04430
| 12>    O        2.48623        -1.41804         0.15924
| 13>    O        3.19540         1.23915         0.00408
| 14>    C        3.55840         2.36555        -0.71342
| 15>    C        4.59924         3.16189        -0.21840
| 16>    C        4.97545         4.33057        -0.88996
| 17>    C        4.31222         4.69779        -2.05616
| 18>    C        3.30213         3.89395        -2.58058
| 19>    C        2.94419         2.71337        -1.92599
| 20>   Cl        4.74503         6.15332        -2.86475
| 21>   Cl        5.43890         2.74189         1.23085
| 22>    H       -1.28677         2.20447         0.09898
| 23>    H        1.06264         2.92223         0.19335
| 24>    H       -0.04081        -1.92109         0.05235
| 25>    H        3.32941        -0.97731         0.37369
| 26>    H        5.77651         4.95189        -0.49678
| 27>    H        2.78688         4.18033        -3.49530
| 28>    H        2.16802         2.08687        -2.36091
| 29> **                         ****END OF INPUT****
================================================================================

                       *****************************
                       * Geometry Optimization Run *
                       *****************************

Geometry optimization settings:
Update method            Update   .... BFGS
Choice of coordinates    CoordSys .... (2022) Redundant Internals
Initial Hessian          InHess   .... Almloef's Model
Max. no of cycles        MaxIter  .... 72

Convergence Tolerances:
Energy Change            TolE     ....  5.0000e-06 Eh
Max. Gradient            TolMAXG  ....  3.0000e-04 Eh/bohr
RMS Gradient             TolRMSG  ....  1.0000e-04 Eh/bohr
Max. Displacement        TolMAXD  ....  4.0000e-03 bohr
RMS Displacement         TolRMSD  ....  2.0000e-03 bohr
Strict Convergence                .... False

------------------------------------------------------------------------------
                        ORCA OPTIMIZATION COORDINATE SETUP
------------------------------------------------------------------------------

The optimization will be done in redundant internal coordinates (2022)
Making redundant internal coordinates   ...  (2022 redundants) done
Evaluating the initial hessian          ...  (Almloef) done
Evaluating the coordinates              ...  done
Calculating the B-matrix                .... done
Calculating the G-matrix                .... done
Diagonalizing the G-matrix              .... done
Small eigenvalue found = 5.189e-03
Small eigenvalue found = 1.845e-02
Small eigenvalue found = 2.339e-02
The first mode is                       ....   52
The number of degrees of freedom        ....   66

    -----------------------------------------------------------------
                    Redundant Internal Coordinates


    -----------------------------------------------------------------
         Definition                    Initial Value    Approx d2E/dq
    -----------------------------------------------------------------
      1. B(C   1,C   0)                  1.3955         0.612355   
      2. B(C   2,C   1)                  1.3984         0.605849   
      3. B(C   3,C   2)                  1.3954         0.612606   
      4. B(C   4,C   3)                  1.3962         0.610629   
      5. B(C   5,C   4)                  1.3898         0.625141   
      6. B(C   5,C   0)                  1.3954         0.612596   
      7. B(Cl  6,C   5)                  1.7181         0.419963   
      8. B(O   7,C   3)                  1.3671         0.608733   
      9. B(O   8,C   2)                  1.3788         0.583028   
     10. B(C   9,O   8)                  1.3840         0.572147   
     11. B(C  10,C   9)                  1.4009         0.600249   
     12. B(C  11,C  10)                  1.3994         0.603574   
     13. B(C  12,C  11)                  1.3910         0.622616   
     14. B(C  13,C  12)                  1.3934         0.617128   
     15. B(C  14,C   9)                  1.4031         0.595543   
     16. B(C  14,C  13)                  1.3966         0.609921   
     17. B(Cl 15,C  12)                  1.7204         0.416517   
     18. B(Cl 16,C  10)                  1.7268         0.406846   
     19. B(H  17,C   0)                  1.0866         0.364633   
     20. B(H  18,C   1)                  1.0856         0.366031   
     21. B(H  19,C   4)                  1.0877         0.363141   
     22. B(H  20,O   8)                  2.2511         0.004531   
     23. B(H  20,O   7)                  0.9753         0.491561   
     24. B(H  21,C  11)                  1.0873         0.363625   
     25. B(H  22,C  13)                  1.0882         0.362471   
     26. B(H  23,C  14)                  1.0882         0.362539   
     27. A(C   1,C   0,H  17)          119.6162         0.352915   
     28. A(C   1,C   0,C   5)          119.9682         0.432164   
     29. A(C   5,C   0,H  17)          120.4118         0.352938   
     30. A(C   0,C   1,H  18)          118.9740         0.353144   
     31. A(C   2,C   1,H  18)          120.9976         0.352506   
     32. A(C   0,C   1,C   2)          120.0073         0.431305   
     33. A(C   1,C   2,C   3)          119.1344         0.431337   
     34. A(C   1,C   2,O   8)          123.2546         0.424738   
     35. A(C   3,C   2,O   8)          117.6070         0.425582   
     36. A(C   2,C   3,C   4)          120.9279         0.431946   
     37. A(C   4,C   3,O   7)          117.4034         0.428636   
     38. A(C   2,C   3,O   7)          121.6678         0.428885   
     39. A(C   3,C   4,C   5)          119.2209         0.433522   
     40. A(C   5,C   4,H  19)          121.0675         0.353906   
     41. A(C   3,C   4,H  19)          119.7115         0.352502   
     42. A(C   0,C   5,Cl  6)          119.6487         0.422262   
     43. A(C   0,C   5,C   4)          120.4351         0.433773   
     44. A(C   4,C   5,Cl  6)          119.9152         0.423795   
     45. A(C   3,O   7,H  20)          107.1047         0.365416   
     46. A(C   2,O   8,C   9)          118.4377         0.417690   
     47. A(O   8,C   9,C  10)          118.3161         0.422608   
     48. A(C  10,C   9,C  14)          119.3218         0.428441   
     49. A(O   8,C   9,C  14)          122.3438         0.422014   
     50. A(C   9,C  10,C  11)          120.3239         0.429471   
     51. A(C  11,C  10,Cl 16)          118.3700         0.418768   
     52. A(C   9,C  10,Cl 16)          121.3041         0.418356   
     53. A(C  12,C  11,H  21)          120.2377         0.353744   
     54. A(C  10,C  11,H  21)          120.1142         0.351889   
     55. A(C  10,C  11,C  12)          119.6461         0.432302   
     56. A(C  13,C  12,Cl 15)          119.5757         0.422197   
     57. A(C  11,C  12,Cl 15)          119.8326         0.422865   
     58. A(C  11,C  12,C  13)          120.5911         0.434032   
     59. A(C  12,C  13,C  14)          119.8068         0.432427   
     60. A(C  14,C  13,H  22)          119.6764         0.352323   
     61. A(C  12,C  13,H  22)          120.5164         0.353024   
     62. A(C   9,C  14,C  13)          120.1619         0.429671   
     63. A(C  13,C  14,H  23)          118.8279         0.352334   
     64. A(C   9,C  14,H  23)          120.9938         0.350916   
     65. D(C   2,C   1,C   0,H  17)   -177.0031         0.025909   
     66. D(H  18,C   1,C   0,H  17)      1.3416         0.025909   
     67. D(C   2,C   1,C   0,C   5)      2.2818         0.025909   
     68. D(H  18,C   1,C   0,C   5)   -179.3735         0.025909   
     69. D(C   3,C   2,C   1,H  18)    175.5746         0.025331   
     70. D(O   8,C   2,C   1,H  18)     -3.6759         0.025331   
     71. D(O   8,C   2,C   1,C   0)    174.6347         0.025331   
     72. D(C   3,C   2,C   1,C   0)     -6.1148         0.025331   
     73. D(O   7,C   3,C   2,O   8)      4.9411         0.025932   
     74. D(O   7,C   3,C   2,C   1)   -174.3516         0.025932   
     75. D(C   4,C   3,C   2,O   8)   -174.7104         0.025932   
     76. D(C   4,C   3,C   2,C   1)      5.9969         0.025932   
     77. D(H  19,C   4,C   3,C   2)    177.8731         0.025755   
     78. D(C   5,C   4,C   3,O   7)    178.3616         0.025755   
     79. D(C   5,C   4,C   3,C   2)     -1.9726         0.025755   
     80. D(H  19,C   4,C   3,O   7)     -1.7928         0.025755   
     81. D(Cl  6,C   5,C   4,H  19)     -1.4413         0.027070   
     82. D(C   0,C   5,C   4,H  19)    178.1925         0.027070   
     83. D(C   0,C   5,C   4,C   3)     -1.9640         0.027070   
     84. D(Cl  6,C   5,C   0,H  17)      0.7193         0.025931   
     85. D(Cl  6,C   5,C   0,C   1)   -178.5598         0.025931   
     86. D(Cl  6,C   5,C   4,C   3)    178.4022         0.027070   
     87. D(C   4,C   5,C   0,H  17)   -178.9155         0.025931   
     88. D(C   4,C   5,C   0,C   1)      1.8053         0.025931   
     89. D(H  20,O   7,C   3,C   4)   -167.9419         0.027116   
     90. D(H  20,O   7,C   3,C   2)     12.3948         0.027116   
     91. D(C   9,O   8,C   2,C   3)    145.4603         0.027282   
     92. D(C   9,O   8,C   2,C   1)    -35.2785         0.027282   
     93. D(C  14,C   9,O   8,C   2)    -39.3694         0.026210   
     94. D(C  10,C   9,O   8,C   2)    142.2004         0.026210   
     95. D(C  11,C  10,C   9,O   8)   -178.1978         0.024839   
     96. D(Cl 16,C  10,C   9,C  14)   -177.1840         0.024839   
     97. D(Cl 16,C  10,C   9,O   8)      1.2949         0.024839   
     98. D(C  11,C  10,C   9,C  14)      3.3233         0.024839   
     99. D(H  21,C  11,C  10,Cl 16)     -0.1788         0.025130   
    100. D(H  21,C  11,C  10,C   9)    179.3286         0.025130   
    101. D(C  12,C  11,C  10,Cl 16)   -179.6682         0.025130   
    102. D(C  12,C  11,C  10,C   9)     -0.1608         0.025130   
    103. D(Cl 15,C  12,C  11,H  21)     -0.9707         0.026838   
    104. D(Cl 15,C  12,C  11,C  10)    178.5182         0.026838   
    105. D(C  13,C  12,C  11,H  21)    178.7584         0.026838   
    106. D(C  13,C  12,C  11,C  10)     -1.7528         0.026838   
    107. D(H  22,C  13,C  12,Cl 15)     -0.0147         0.026339   
    108. D(H  22,C  13,C  12,C  11)   -179.7444         0.026339   
    109. D(C  14,C  13,C  12,Cl 15)   -179.8112         0.026339   
    110. D(C  14,C  13,C  12,C  11)      0.4591         0.026339   
    111. D(H  23,C  14,C  13,H  22)      1.4971         0.025692   
    112. D(H  23,C  14,C  13,C  12)   -178.7046         0.025692   
    113. D(C   9,C  14,C  13,H  22)   -177.0456         0.025692   
    114. D(C   9,C  14,C  13,C  12)      2.7526         0.025692   
    115. D(H  23,C  14,C   9,C  10)    176.8704         0.024431   
    116. D(H  23,C  14,C   9,O   8)     -1.5445         0.024431   
    117. D(C  13,C  14,C   9,C  10)     -4.6189         0.024431   
    118. D(C  13,C  14,C   9,O   8)    176.9661         0.024431   
    -----------------------------------------------------------------

Number of atoms                         .... 24
Number of degrees of freedom            .... 118


         *************************************************************
         *                GEOMETRY OPTIMIZATION CYCLE   1            *
         *************************************************************
---------------------------------
CARTESIAN COORDINATES (ANGSTROEM)
---------------------------------
  C     -0.498380    1.456720    0.098960
  C      0.836360    1.861870    0.139870
  C      1.858500    0.909640    0.076920
  C      1.527050   -0.445530    0.103270
  C      0.193990   -0.859110    0.065880
  C     -0.813110    0.098450    0.043280
  Cl    -2.458040   -0.389950   -0.044300
  O      2.486230   -1.418040    0.159240
  O      3.195400    1.239150    0.004080
  C      3.558400    2.365550   -0.713420
  C      4.599240    3.161890   -0.218400
  C      4.975450    4.330570   -0.889960
  C      4.312220    4.697790   -2.056160
  C      3.302130    3.893950   -2.580580
  C      2.944190    2.713370   -1.925990
  Cl     4.745030    6.153320   -2.864750
  Cl     5.438900    2.741890    1.230850
  H     -1.286770    2.204470    0.098980
  H      1.062640    2.922230    0.193350
  H     -0.040810   -1.921090    0.052350
  H      3.329410   -0.977310    0.373690
  H      5.776510    4.951890   -0.496780
  H      2.786880    4.180330   -3.495300
  H      2.168020    2.086870   -2.360910

----------------------------
CARTESIAN COORDINATES (A.U.)
----------------------------
  NO LB      ZA    FRAG     MASS         X           Y           Z
   0 C     6.0000    0    12.011   -0.941802    2.752802    0.187007
   1 C     6.0000    0    12.011    1.580491    3.518424    0.264316
   2 C     6.0000    0    12.011    3.512056    1.718970    0.145358
   3 C     6.0000    0    12.011    2.885706   -0.841930    0.195152
   4 C     6.0000    0    12.011    0.366588   -1.623483    0.124495
   5 C     6.0000    0    12.011   -1.536555    0.186044    0.081787
   6 Cl   17.0000    0    35.453   -4.645022   -0.736899   -0.083715
   7 O     8.0000    0    15.999    4.698294   -2.679707    0.300920
   8 O     8.0000    0    15.999    6.038431    2.341654    0.007710
   9 C     6.0000    0    12.011    6.724401    4.470242   -1.348168
  10 C     6.0000    0    12.011    8.691304    5.975106   -0.412716
  11 C     6.0000    0    12.011    9.402238    8.183591   -1.681781
  12 C     6.0000    0    12.011    8.148915    8.877537   -3.885579
  13 C     6.0000    0    12.011    6.240121    7.358499   -4.876589
  14 C     6.0000    0    12.011    5.563713    5.127526   -3.639594
  15 Cl   17.0000    0    35.453    8.966807   11.628090   -5.413593
  16 Cl   17.0000    0    35.453   10.278031    5.181421    2.325969
  17 H     1.0000    0     1.008   -2.431643    4.165845    0.187045
  18 H     1.0000    0     1.008    2.008099    5.522214    0.365379
  19 H     1.0000    0     1.008   -0.077120   -3.630334    0.098927
  20 H     1.0000    0     1.008    6.291673   -1.846848    0.706172
  21 H     1.0000    0     1.008   10.916022    9.357716   -0.938778
  22 H     1.0000    0     1.008    5.266440    7.899679   -6.605160
  23 H     1.0000    0     1.008    4.096964    3.943613   -4.461473

--------------------------------
INTERNAL COORDINATES (ANGSTROEM)
--------------------------------
 C      0   0   0     0.000000000000     0.00000000     0.00000000
 C      1   0   0     1.395475194405     0.00000000     0.00000000
 C      2   1   0     1.398382942902   120.00730714     0.00000000
 C      3   2   1     1.395363448676   119.13439743   353.88521152
 C      4   3   2     1.396243314075   120.92787852     5.99690044
 C      5   4   3     1.389849748570   119.22087215   358.02744876
 Cl     6   5   4     1.718138388285   119.91522697   178.40217544
 O      4   3   2     1.367089833698   121.66780929   185.64837581
 O      3   2   1     1.378834332217   123.25460873   174.63471367
 C      9   3   2     1.383962503105   118.43773013   324.72150892
 C     10   9   3     1.400910454526   118.31610011   142.20041341
 C     11  10   9     1.399406924415   120.32394736   181.80216421
 C     12  11  10     1.390951832847   119.64607025   359.83916149
 C     13  12  11     1.393361722633   120.59113197   358.24719922
 C     14  13  12     1.396559432355   119.80682487     0.45907096
 Cl    13  12  11     1.720380732600   119.83263710   178.51818599
 Cl    11  10   9     1.726775746326   121.30414926     1.29488420
 H      1   2   3     1.086595074073   119.61615663   182.99686979
 H      2   1   3     1.085553351245   118.97395465   178.34468767
 H      5   4   3     1.087711184690   119.71147944   177.87310101
 H      8   4   3     0.975286751576   107.10469875    12.39482959
 H     12  11  10     1.087348232352   120.11423103   179.32864385
 H     14  13  12     1.088213556844   120.51644043   180.25560822
 H     15  14  13     1.088162453543   118.82789416   181.29536685

---------------------------
INTERNAL COORDINATES (A.U.)
---------------------------
 C      0   0   0     0.000000000000     0.00000000     0.00000000
 C      1   0   0     2.637065944106     0.00000000     0.00000000
 C      2   1   0     2.642560792432   120.00730714     0.00000000
 C      3   2   1     2.636854775281   119.13439743   353.88521152
 C      4   3   2     2.638517479921   120.92787852     5.99690044
 C      5   4   3     2.626435392097   119.22087215   358.02744876
 Cl     6   5   4     3.246811014036   119.91522697   178.40217544
 O      4   3   2     2.583425386157   121.66780929   185.64837581
 O      3   2   1     2.605619271938   123.25460873   174.63471367
 C      9   3   2     2.615310110484   118.43773013   324.72150892
 C     10   9   3     2.647337097201   118.31610011   142.20041341
 C     11  10   9     2.644495837057   120.32394736   181.80216421
 C     12  11  10     2.628518029556   119.64607025   359.83916149
 C     13  12  11     2.633072061266   120.59113197   358.24719922
 C     14  13  12     2.639114856896   119.80682487     0.45907096
 Cl    13  12  11     3.251048430688   119.83263710   178.51818599
 Cl    11  10   9     3.263133255254   121.30414926     1.29488420
 H      1   2   3     2.053367108466   119.61615663   182.99686979
 H      2   1   3     2.051398537614   118.97395465   178.34468767
 H      5   4   3     2.055476251867   119.71147944   177.87310101
 H      8   4   3     1.843024862521   107.10469875    12.39482959
 H     12  11  10     2.054790371350   120.11423103   179.32864385
 H     14  13  12     2.056425597656   120.51644043   180.25560822
 H     15  14  13     2.056329026411   118.82789416   181.29536685

---------------------
BASIS SET INFORMATION
---------------------
There are 4 groups of distinct atoms

 Group   1 Type C   : 12s6p1d contracted to 5s4p1d pattern {63111/3111/1}
 Group   2 Type Cl  : 14s11p1d contracted to 7s6p1d pattern {6311111/521111/1}
 Group   3 Type O   : 12s6p1d contracted to 5s4p1d pattern {63111/3111/1}
 Group   4 Type H   : 5s1p contracted to 3s1p pattern {311/1}

Atom   0C    basis set group =>   1
Atom   1C    basis set group =>   1
Atom   2C    basis set group =>   1
Atom   3C    basis set group =>   1
Atom   4C    basis set group =>   1
Atom   5C    basis set group =>   1
Atom   6Cl   basis set group =>   2
Atom   7O    basis set group =>   3
Atom   8O    basis set group =>   3
Atom   9C    basis set group =>   1
Atom  10C    basis set group =>   1
Atom  11C    basis set group =>   1
Atom  12C    basis set group =>   1
Atom  13C    basis set group =>   1
Atom  14C    basis set group =>   1
Atom  15Cl   basis set group =>   2
Atom  16Cl   basis set group =>   2
Atom  17H    basis set group =>   4
Atom  18H    basis set group =>   4
Atom  19H    basis set group =>   4
Atom  20H    basis set group =>   4
Atom  21H    basis set group =>   4
Atom  22H    basis set group =>   4
Atom  23H    basis set group =>   4
---------------------------------
AUXILIARY/J BASIS SET INFORMATION
---------------------------------
There are 4 groups of distinct atoms

 Group   1 Type C   : 12s5p4d2f1g contracted to 6s4p3d1f1g pattern {711111/2111/211/2/1}
 Group   2 Type Cl  : 14s5p5d2f1g contracted to 8s4p3d1f1g pattern {71111111/2111/311/2/1}
 Group   3 Type O   : 12s5p4d2f1g contracted to 6s4p3d1f1g pattern {711111/2111/211/2/1}
 Group   4 Type H   : 5s2p1d contracted to 3s1p1d pattern {311/2/1}

Atom   0C    basis set group =>   1
Atom   1C    basis set group =>   1
Atom   2C    basis set group =>   1
Atom   3C    basis set group =>   1
Atom   4C    basis set group =>   1
Atom   5C    basis set group =>   1
Atom   6Cl   basis set group =>   2
Atom   7O    basis set group =>   3
Atom   8O    basis set group =>   3
Atom   9C    basis set group =>   1
Atom  10C    basis set group =>   1
Atom  11C    basis set group =>   1
Atom  12C    basis set group =>   1
Atom  13C    basis set group =>   1
Atom  14C    basis set group =>   1
Atom  15Cl   basis set group =>   2
Atom  16Cl   basis set group =>   2
Atom  17H    basis set group =>   4
Atom  18H    basis set group =>   4
Atom  19H    basis set group =>   4
Atom  20H    basis set group =>   4
Atom  21H    basis set group =>   4
Atom  22H    basis set group =>   4
Atom  23H    basis set group =>   4
------------------------------------------------------------------------------
                             ORCA STARTUP CALCULATIONS
                           -- RI-GTO INTEGRALS CHOSEN --
------------------------------------------------------------------------------
------------------------------------------------------------------------------
                   ___                                                        
                  /   \      - P O W E R E D   B Y -                         
                 /     \                                                     
                 |  |  |   _    _      __       _____    __    __             
                 |  |  |  | |  | |    /  \     |  _  \  |  |  /  |          
                  \  \/   | |  | |   /    \    | | | |  |  | /  /          
                 / \  \   | |__| |  /  /\  \   | |_| |  |  |/  /          
                |  |  |   |  __  | /  /__\  \  |    /   |      \           
                |  |  |   | |  | | |   __   |  |    \   |  |\   \          
                \     /   | |  | | |  |  |  |  | |\  \  |  | \   \       
                 \___/    |_|  |_| |__|  |__|  |_| \__\ |__|  \__/        
                                                                              
                      - O R C A' S   B I G   F R I E N D -                    
                                      &                                       
                       - I N T E G R A L  F E E D E R -                       
                                                                              
 v1 FN, 2020, v2 2021, v3 2022-2024                                           
------------------------------------------------------------------------------


----------------------
SHARK INTEGRAL PACKAGE
----------------------

Number of atoms                             ...     24
Number of basis functions                   ...    440
Number of shells                            ...    210
Maximum angular momentum                    ...      2
Integral batch strategy                     ... SHARK/LIBINT Hybrid
RI-J (if used) integral strategy            ... SPLIT-RIJ (Revised 2003 algorithm where possible)
Printlevel                                  ...      1
Contraction scheme used                     ... SEGMENTED contraction
Prescreening option                         ... SCHWARTZ
   Thresh                                   ... 2.500e-11
   Tcut                                     ... 2.500e-12
   Tpresel                                  ... 2.500e-12 
Coulomb Range Separation                    ... NOT USED
Exchange Range Separation                   ... NOT USED
Multipole approximations                    ... NOT USED
Finite Nucleus Model                        ... NOT USED
CABS basis                                  ... NOT available
Auxiliary Coulomb fitting basis             ... AVAILABLE
   # of basis functions in Aux-J            ...    916
   # of shells in Aux-J                     ...    296
   Maximum angular momentum in Aux-J        ...      4
Auxiliary J/K fitting basis                 ... NOT available
Auxiliary Correlation fitting basis         ... NOT available
Auxiliary 'external' fitting basis          ... NOT available

Checking pre-screening integrals            ... done (  0.0 sec) Dimension = 210
Check shell pair data                       ... done (  0.0 sec)
Shell pair information
Shell pair cut-off parameter TPreSel        ...   2.5e-12
Total number of shell pairs                 ...     22155
Shell pairs after pre-screening             ...     17205
Total number of primitive shell pairs       ...     75093
Primitive shell pairs kept                  ...     39216
          la=0 lb=0:   4723 shell pairs
          la=1 lb=0:   7193 shell pairs
          la=1 lb=1:   2763 shell pairs
          la=2 lb=0:   1354 shell pairs
          la=2 lb=1:   1058 shell pairs
          la=2 lb=2:    114 shell pairs

Calculating one electron integrals          ... done (  0.0 sec)
Calculating RI/J V-Matrix + Cholesky decomp.... done (  0.0 sec)
Calculating Nuclear repulsion               ... done (  0.0 sec) ENN=   1433.084984797995 Eh

Diagonalization of the overlap matrix:
Smallest eigenvalue                        ... 8.833e-07
Time for diagonalization                   ...    0.010 sec
Threshold for overlap eigenvalues          ... 1.000e-07
Number of eigenvalues below threshold      ... 0

IMPORTANT:
Smallest eigenvalue of S below the DiffSThresh (1.000e-06) while
Thresh>1e-12 and/or TCut>1e-13! In order to avoid SCF convergence issues,
Thresh will be set to at least 1e-12 and TCut to at least 1e-13.
This can be turned off by adding %SCF DiffSThresh -1 END to the input.

Time for construction of square roots      ...    0.008 sec
Total time needed                          ...    0.020 sec

-------------------
DFT GRID GENERATION
-------------------

General Integration Accuracy     IntAcc      ... 4.388
Radial Grid Type                 RadialGrid  ... OptM3 with GC (2021)
Angular Grid (max. ang.)         AngularGrid ... 4 (Lebedev-302)
Angular grid pruning method      GridPruning ... 4 (adaptive)
Weight generation scheme         WeightScheme... mBecke (2022)
Basis function cutoff            BFCut       ... 1.0000e-11
Integration weight cutoff        WCut        ... 1.0000e-14
Partially contracted basis set               ... off
Rotationally invariant grid construction     ... off
Angular grids for H and He will be reduced by one unit
Diffuse basis detected: some atoms will have their outermost
                        angular grid increased by 1.

Total number of grid points                  ...   132665
Total number of batches                      ...     2086
Average number of points per batch           ...       63
Average number of grid points per atom       ...     5528

--------------------
COSX GRID GENERATION
--------------------

GRIDX 1
-------
General Integration Accuracy     IntAcc      ... 3.816
Radial Grid Type                 RadialGrid  ... OptM3 with GC (2021)
Angular Grid (max. ang.)         AngularGrid ... 1 (Lebedev-50)
Angular grid pruning method      GridPruning ... 4 (adaptive)
Weight generation scheme         WeightScheme... mBecke (2022)
Basis function cutoff            BFCut       ... 1.0000e-11
Integration weight cutoff        WCut        ... 1.0000e-14
Partially contracted basis set               ... on
Rotationally invariant grid construction     ... off
Angular grids for H and He will be reduced by one unit
Diffuse basis detected: some atoms will have their outermost
                        angular grid increased by 1.

Total number of grid points                  ...    20455
Total number of batches                      ...      174
Average number of points per batch           ...      117
Average number of grid points per atom       ...      852
UseSFitting                                  ... on

GRIDX 2
-------
General Integration Accuracy     IntAcc      ... 4.020
Radial Grid Type                 RadialGrid  ... OptM3 with GC (2021)
Angular Grid (max. ang.)         AngularGrid ... 2 (Lebedev-110)
Angular grid pruning method      GridPruning ... 4 (adaptive)
Weight generation scheme         WeightScheme... mBecke (2022)
Basis function cutoff            BFCut       ... 1.0000e-11
Integration weight cutoff        WCut        ... 1.0000e-14
Partially contracted basis set               ... on
Rotationally invariant grid construction     ... off
Angular grids for H and He will be reduced by one unit
Diffuse basis detected: some atoms will have their outermost
                        angular grid increased by 1.

Total number of grid points                  ...    40513
Total number of batches                      ...      327
Average number of points per batch           ...      123
Average number of grid points per atom       ...     1688
UseSFitting                                  ... on

GRIDX 3
-------
General Integration Accuracy     IntAcc      ... 4.338
Radial Grid Type                 RadialGrid  ... OptM3 with GC (2021)
Angular Grid (max. ang.)         AngularGrid ... 3 (Lebedev-194)
Angular grid pruning method      GridPruning ... 4 (adaptive)
Weight generation scheme         WeightScheme... mBecke (2022)
Basis function cutoff            BFCut       ... 1.0000e-11
Integration weight cutoff        WCut        ... 1.0000e-14
Partially contracted basis set               ... on
Rotationally invariant grid construction     ... off
Angular grids for H and He will be reduced by one unit
Diffuse basis detected: some atoms will have their outermost
                        angular grid increased by 1.

Total number of grid points                  ...    89546
Total number of batches                      ...      711
Average number of points per batch           ...      125
Average number of grid points per atom       ...     3731
UseSFitting                                  ... on
Initializing property integral containers    ... done (  0.0 sec)

SHARK setup successfully completed in   2.5 seconds

Maximum memory used throughout the entire STARTUP-calculation: 69.3 MB
-------------------------------------------------------------------------------
                                 ORCA GUESS
                   Start orbitals & Density for SCF / CASSCF
-------------------------------------------------------------------------------

------------
SCF SETTINGS
------------
Hamiltonian:
 Density Functional     Method          .... DFT(GTOs)
 Exchange Functional    Exchange        .... B88
   X-Alpha parameter    XAlpha          ....  0.666667
   Becke's b parameter  XBeta           ....  0.004200
 Correlation Functional Correlation     .... LYP
 LDA part of GGA corr.  LDAOpt          .... VWN-5
 Gradients option       PostSCFGGA      .... off
 Hybrid DFT is turned on
   Fraction HF Exchange ScalHFX         ....  0.200000
   Scaling of DF-GGA-X  ScalDFX         ....  0.720000
   Scaling of DF-GGA-C  ScalDFC         ....  0.810000
   Scaling of DF-LDA-C  ScalLDAC        ....  1.000000
   Perturbative correction              ....  0.000000
   NL short-range parameter             ....  4.800000
 RI-approximation to the Coulomb term is turned on
   Number of AuxJ basis functions       .... 916
   RIJ-COSX (HFX calculated with COS-X)).... on


General Settings:
 Integral files         IntName         .... Triclosan\Triclosan_B3LYP_6-311+G\Triclosan_B3LYP_6-311+G.orcainp
 Hartree-Fock type      HFTyp           .... RHF
 Total Charge           Charge          ....    0
 Multiplicity           Mult            ....    1
 Number of Electrons    NEL             ....  146
 Basis Dimension        Dim             ....  440
 Nuclear Repulsion      ENuc            ....   1433.0849847980 Eh

Convergence Acceleration:
 AO-DIIS                CNVDIIS         .... on
   Start iteration      DIISMaxIt       ....    12
   Startup error        DIISStart       ....  0.200000
   # of expansion vecs  DIISMaxEq       ....     5
   Bias factor          DIISBfac        ....   1.050
   Max. coefficient     DIISMaxC        ....  10.000
 MO-DIIS                CNVKDIIS        .... off
 Trust-Rad. Augm. Hess. CNVTRAH         .... auto
   Auto Start mean grad. ratio tolernc. ....  1.125000
   Auto Start start iteration           ....    50
   Auto Start num. interpolation iter.  ....    10
   Max. Number of Micro iterations      ....    24
   Max. Number of Macro iterations      .... Maxiter - #DIIS iter
   Number of Davidson start vectors     ....     2
   Converg. threshold    (grad. norm)   ....   1.000e-05
   Grad. Scal. Fac. for Micro threshold ....   0.100
   Minimum threshold for Micro iter.    ....   1.000e-02
   NR start threshold (gradient norm)   ....   1.000e-04
   Initial trust radius                 ....   0.400
   Minimum AH scaling param. (alpha)    ....   1.000
   Maximum AH scaling param. (alpha)    .... 1000.000
   Quad. conv. algorithm                .... NR
   White noise on init. David. guess    .... on
   Maximum white noise                  ....   0.010
   Pseudo random numbers                .... off
   Inactive MOs                         .... canonical
   Orbital update algorithm             .... Taylor
   Preconditioner                       .... Diag
   Full preconditioner red. dimension   ....   250
 SOSCF                  CNVSOSCF        .... on
   Start iteration      SOSCFMaxIt      ....   150
   Startup grad/error   SOSCFStart      ....  0.003300
   Hessian update       SOSCFHessUp     .... L-BFGS
 Level Shifting         CNVShift        .... on
   Level shift para.    LevelShift      ....    0.2500
   Turn off err/grad.   ShiftErr        ....    0.0010
 Zerner damping         CNVZerner       .... off
 Static damping         CNVDamp         .... on
   Fraction old density DampFac         ....    0.7000
   Max. Damping (<1)    DampMax         ....    0.9800
   Min. Damping (>=0)   DampMin         ....    0.0000
   Turn off err/grad.   DampErr         ....    0.1000

SCF Procedure:
 Maximum # iterations   MaxIter         ....   125
 SCF integral mode      SCFMode         .... Direct
   Integral package                     .... SHARK and LIBINT hybrid scheme
 Reset frequency        DirectResetFreq ....    20
 Integral Threshold     Thresh          ....  1.000e-12 Eh
 Primitive CutOff       TCut            ....  1.000e-13 Eh

Convergence Tolerance:
 Convergence Check Mode ConvCheckMode   .... Total+1el-Energy
 Convergence forced     ConvForced      .... 0
 Energy Change          TolE            ....  1.000e-08 Eh
 1-El. energy change                    ....  1.000e-05 Eh
 Orbital Gradient       TolG            ....  1.000e-05
 Orbital Rotation angle TolX            ....  1.000e-05
 DIIS Error             TolErr          ....  5.000e-07

------------------------------
INITIAL GUESS: MODEL POTENTIAL
------------------------------
Loading Hartree-Fock densities                     ... done
Calculating cut-offs                               ... done
Initializing the effective Hamiltonian             ... done
Setting up the integral package (SHARK)            ... done
Starting the Coulomb interaction                   ... done (   0.4 sec)
Making the grid                                    ... done (   0.3 sec)
Mapping shells                                     ... done
Starting the XC term evaluation                    ... done (   0.7 sec)
  promolecular density results
     # of electrons  =    145.990789678
     EX              =   -162.821085390
     EC              =     -5.410541823
     EX+EC           =   -168.231627212
Transforming the Hamiltonian                       ... done (   0.0 sec)
Diagonalizing the Hamiltonian                      ... done (   0.0 sec)
Back transforming the eigenvectors                 ... done (   0.0 sec)
Now organizing SCF variables                       ... done
                      ------------------
                      INITIAL GUESS DONE (   1.4 sec)
                      ------------------
             **** ENERGY FILE WAS UPDATED (Triclosan\Triclosan_B3LYP_6-311+G\Triclosan_B3LYP_6-311+G.orcainp.en.tmp) ****
Finished Guess after   1.5 sec
Maximum memory used throughout the entire GUESS-calculation: 44.2 MB

-------------------------------------------------------------------------------------------
                                      ORCA LEAN-SCF
                              memory conserving SCF solver
-------------------------------------------------------------------------------------------

--------------------
CPCM SOLVATION MODEL
--------------------
CPCM parameters:
  Epsilon                                         ...      80.1510
  Refrac                                          ...       1.3328
  Rsolv                                           ...       1.3000
  Surface type                                    ... GAUSSIAN VDW
  Discretization scheme                           ... Constant charge density
    Threshold for H atoms                         ...       5.0000 (charges/Ang^2)
    Threshold for non-H atoms                     ...       5.0000 (charges/Ang^2)
  Epsilon function type                           ...         CPCM
Solvent:                                          ... WATER
Radii:
  Scheme                                          ... Element-dependent radii
  Radius for C  used is    3.8550 Bohr (=   2.0400 Ang.)
  Radius for Cl used is    3.9684 Bohr (=   2.1000 Ang.)
  Radius for O  used is    3.4469 Bohr (=   1.8240 Ang.)
  Radius for H  used is    2.4944 Bohr (=   1.3200 Ang.)
Calculating surface                               ...        done! (  0.0s)
Cavity surface points                             ...         2518
Cavity Volume                                     ...    1981.6541
Cavity Surface-area                               ...    1034.6095
Calculating surface distance matrix               ...        done! (  0.0s)
Performing Cholesky decomposition & store         ...        done! (  0.1s)
Overall time for CPCM initialization              ...                 0.1s

----------------------------------------D-I-I-S--------------------------------------------
Iteration    Energy (Eh)           Delta-E    RMSDP     MaxDP     DIISErr   Damp  Time(sec)
-------------------------------------------------------------------------------------------
               ***  Starting incremental Fock matrix formation  ***
    1    -1991.9195901009659337     0.00e+00  1.48e-02  1.32e+00  2.59e-01  0.700  17.4
    2    -1992.0568246939094479    -1.37e-01  1.03e-02  9.81e-01  1.08e-01  0.700  10.0
                               ***Turning on AO-DIIS***
    3    -1992.1139190404608144    -5.71e-02  4.72e-03  4.54e-01  3.74e-02  0.700   9.9
    4    -1992.1474629652577732    -3.35e-02  9.13e-03  8.86e-01  2.05e-02  0.000   9.6
    5    -1992.2203585537961317    -7.29e-02  3.22e-03  4.22e-01  5.85e-03  0.000   9.8
                              *** Initializing SOSCF ***
---------------------------------------S-O-S-C-F--------------------------------------
Iteration    Energy (Eh)           Delta-E    RMSDP     MaxDP     MaxGrad    Time(sec)
--------------------------------------------------------------------------------------
    6    -1992.2207056959030069    -3.47e-04  9.03e-04  9.49e-02  1.44e-03     9.1
               *** Restarting incremental Fock matrix formation ***
    7    -1992.2207806440640070    -7.49e-05  9.09e-04  1.09e-01  2.01e-04    17.2
    8    -1992.2207783340693368     2.31e-06  1.74e-04  1.89e-02  3.32e-04    13.8
    9    -1992.2207869130386371    -8.58e-06  1.29e-04  1.28e-02  4.20e-05    13.0
   10    -1992.2207867980175706     1.15e-07  3.82e-05  3.29e-03  4.40e-05    12.5
   11    -1992.2207870833851757    -2.85e-07  5.27e-05  4.86e-03  5.93e-06    11.7
   12    -1992.2207870740082853     9.38e-09  2.34e-05  2.26e-03  9.88e-06    11.2
                 **** Energy Check signals convergence ****

               *****************************************************
               *                     SUCCESS                       *
               *           SCF CONVERGED AFTER  12 CYCLES          *
               *****************************************************

Recomputing exchange energy using gridx3       ... done (   27.771 sec)
Old exchange energy                            :    -32.756178120 Eh
New exchange energy                            :    -32.756202169 Eh
Exchange energy change after final integration :     -0.000024050 Eh
Total energy after final integration           :  -1992.220811124 Eh
             **** ENERGY FILE WAS UPDATED (Triclosan\Triclosan_B3LYP_6-311+G\Triclosan_B3LYP_6-311+G.orcainp.en.tmp) ****

----------------
TOTAL SCF ENERGY
----------------

Total Energy       :      -1992.22081112381375 Eh          -54211.08431 eV

Components:
Nuclear Repulsion  :       1433.08498479799505 Eh           38996.22497 eV
Electronic Energy  :      -3425.29254981243002 Eh          -93206.94883 eV
One Electron Energy:      -5586.16550694686612 Eh         -152007.29135 eV
Two Electron Energy:       2160.87295713443609 Eh           58800.34252 eV
CPCM Dielectric    :         -0.01322205957352 Eh              -0.35979 eV

Virial components:
Potential Energy   :      -3979.25469292400612 Eh         -108281.02510 eV
Kinetic Energy     :       1987.03388180019238 Eh           54069.94079 eV
Virial Ratio       :          2.00261038796124

DFT components:
N(Alpha)           :       73.000052460386 electrons
N(Beta)            :       73.000052460386 electrons
N(Total)           :      146.000104920772 electrons
E(X)               :     -130.149444218273 Eh       
E(C)               :       -6.347334911315 Eh       
E(XC)              :     -136.496779129588 Eh       

CPCM Solvation Model Properties:
Surface-charge          :         -0.03242800925783
Corrected charge        :         -0.00000000000000
Outlying charge corr.   :          0.00005878458845 Eh               0.00160 eV
Free-energy (cav+disp)  :  This term is not implemented in the current solvation scheme

---------------
SCF CONVERGENCE
---------------

  Last Energy change         ...   -9.3769e-09  Tolerance :   1.0000e-08
  Last MAX-Density change    ...    2.2649e-03  Tolerance :   1.0000e-07
  Last RMS-Density change    ...    2.3411e-05  Tolerance :   5.0000e-09
  Last DIIS Error            ...    1.4367e-03  Tolerance :   5.0000e-07
  Last Orbital Gradient      ...    9.8779e-06  Tolerance :   1.0000e-05
  Last Orbital Rotation      ...    1.7913e-05  Tolerance :   1.0000e-05


----------------
ORBITAL ENERGIES
----------------

  NO   OCC          E(Eh)            E(eV) 
   0   2.0000    -101.567535     -2763.7931 
   1   2.0000    -101.563673     -2763.6880 
   2   2.0000    -101.560583     -2763.6040 
   3   2.0000     -19.189866      -522.1828 
   4   2.0000     -19.165323      -521.5150 
   5   2.0000     -10.265545      -279.3397 
   6   2.0000     -10.253665      -279.0164 
   7   2.0000     -10.252722      -278.9907 
   8   2.0000     -10.250961      -278.9428 
   9   2.0000     -10.246918      -278.8328 
  10   2.0000     -10.240704      -278.6637 
  11   2.0000     -10.203271      -277.6451 
  12   2.0000     -10.199792      -277.5504 
  13   2.0000     -10.197887      -277.4986 
  14   2.0000     -10.192599      -277.3547 
  15   2.0000     -10.189405      -277.2678 
  16   2.0000     -10.186888      -277.1993 
  17   2.0000      -9.482275      -258.0258 
  18   2.0000      -9.478757      -257.9301 
  19   2.0000      -9.475764      -257.8486 
  20   2.0000      -7.246885      -197.1978 
  21   2.0000      -7.243155      -197.0963 
  22   2.0000      -7.240075      -197.0125 
  23   2.0000      -7.237284      -196.9365 
  24   2.0000      -7.236778      -196.9227 
  25   2.0000      -7.233770      -196.8409 
  26   2.0000      -7.233412      -196.8312 
  27   2.0000      -7.230809      -196.7603 
  28   2.0000      -7.230463      -196.7509 
  29   2.0000      -1.111586       -30.2478 
  30   2.0000      -1.072232       -29.1769 
  31   2.0000      -0.920884       -25.0585 
  32   2.0000      -0.905309       -24.6347 
  33   2.0000      -0.891416       -24.2567 
  34   2.0000      -0.849735       -23.1225 
  35   2.0000      -0.838555       -22.8182 
  36   2.0000      -0.769262       -20.9327 
  37   2.0000      -0.765400       -20.8276 
  38   2.0000      -0.759448       -20.6656 
  39   2.0000      -0.724649       -19.7187 
  40   2.0000      -0.655633       -17.8407 
  41   2.0000      -0.641036       -17.4435 
  42   2.0000      -0.627830       -17.0841 
  43   2.0000      -0.606520       -16.5043 
  44   2.0000      -0.574315       -15.6279 
  45   2.0000      -0.546906       -14.8821 
  46   2.0000      -0.519574       -14.1383 
  47   2.0000      -0.512462       -13.9448 
  48   2.0000      -0.503139       -13.6911 
  49   2.0000      -0.482296       -13.1239 
  50   2.0000      -0.468259       -12.7420 
  51   2.0000      -0.457978       -12.4622 
  52   2.0000      -0.450740       -12.2652 
  53   2.0000      -0.446876       -12.1601 
  54   2.0000      -0.442228       -12.0336 
  55   2.0000      -0.424074       -11.5396 
  56   2.0000      -0.415991       -11.3197 
  57   2.0000      -0.408288       -11.1101 
  58   2.0000      -0.405303       -11.0289 
  59   2.0000      -0.394744       -10.7415 
  60   2.0000      -0.385573       -10.4920 
  61   2.0000      -0.376993       -10.2585 
  62   2.0000      -0.372936       -10.1481 
  63   2.0000      -0.365476        -9.9451 
  64   2.0000      -0.335633        -9.1330 
  65   2.0000      -0.331648        -9.0246 
  66   2.0000      -0.324366        -8.8265 
  67   2.0000      -0.324208        -8.8222 
  68   2.0000      -0.318582        -8.6691 
  69   2.0000      -0.271598        -7.3906 
  70   2.0000      -0.260717        -7.0945 
  71   2.0000      -0.250083        -6.8051 
  72   2.0000      -0.228321        -6.2129 
  73   0.0000      -0.044519        -1.2114 
  74   0.0000      -0.035925        -0.9776 
  75   0.0000      -0.022033        -0.5995 
  76   0.0000      -0.012283        -0.3342 
  77   0.0000      -0.003576        -0.0973 
  78   0.0000       0.001818         0.0495 
  79   0.0000       0.009275         0.2524 
  80   0.0000       0.014894         0.4053 
  81   0.0000       0.018172         0.4945 
  82   0.0000       0.025260         0.6874 
  83   0.0000       0.032782         0.8920 
*Only the first 10 virtual orbitals were printed.

                    ********************************
                    * MULLIKEN POPULATION ANALYSIS *
                    ********************************

-----------------------
MULLIKEN ATOMIC CHARGES
-----------------------
   0 C :   -0.600017
   1 C :    0.115938
   2 C :   -0.215189
   3 C :   -0.896199
   4 C :   -0.018388
   5 C :    0.762963
   6 Cl:    0.313342
   7 O :   -0.298445
   8 O :   -0.023472
   9 C :   -1.754392
  10 C :    1.244939
  11 C :   -0.823500
  12 C :    0.954765
  13 C :   -0.502299
  14 C :   -0.335613
  15 Cl:    0.322909
  16 Cl:    0.300087
  17 H :    0.178174
  18 H :    0.188476
  19 H :    0.179088
  20 H :    0.314072
  21 H :    0.206036
  22 H :    0.187992
  23 H :    0.198733
Sum of atomic charges:   -0.0000000

--------------------------------
MULLIKEN REDUCED ORBITAL CHARGES
--------------------------------
  0 C s       :     3.532678  s :     3.532678
      pz      :     1.035509  p :     3.010403
      px      :     1.150994
      py      :     0.823900
      dz2     :     0.004112  d :     0.056937
      dxz     :     0.007304
      dyz     :     0.007827
      dx2y2   :     0.017091
      dxy     :     0.020601

  1 C s       :     2.816338  s :     2.816338
      pz      :     0.979573  p :     3.011254
      px      :     0.887347
      py      :     1.144334
      dz2     :     0.004202  d :     0.056470
      dxz     :     0.011864
      dyz     :     0.004620
      dx2y2   :     0.016695
      dxy     :     0.019089

  2 C s       :     2.859434  s :     2.859434
      pz      :     1.031183  p :     3.243311
      px      :     0.818624
      py      :     1.393504
      dz2     :     0.007055  d :     0.112444
      dxz     :     0.021796
      dyz     :     0.011879
      dx2y2   :     0.039318
      dxy     :     0.032396

  3 C s       :     3.831185  s :     3.831185
      pz      :     1.045777  p :     2.946520
      px      :     0.807906
      py      :     1.092837
      dz2     :     0.006971  d :     0.118494
      dxz     :     0.020015
      dyz     :     0.019464
      dx2y2   :     0.036081
      dxy     :     0.035962

  4 C s       :     2.963241  s :     2.963241
      pz      :     1.023381  p :     3.001758
      px      :     1.022888
      py      :     0.955489
      dz2     :     0.004209  d :     0.053389
      dxz     :     0.010612
      dyz     :     0.004641
      dx2y2   :     0.018485
      dxy     :     0.015442

  5 C s       :     3.079499  s :     3.079499
      pz      :     1.036196  p :     2.069546
      px      :     0.823744
      py      :     0.209606
      dz2     :     0.005185  d :     0.087992
      dxz     :     0.013224
      dyz     :     0.013312
      dx2y2   :     0.029160
      dxy     :     0.027110

  6 Cls       :     5.645758  s :     5.645758
      pz      :     3.926291  p :    11.008918
      px      :     3.147119
      py      :     3.935507
      dz2     :     0.004675  d :     0.031982
      dxz     :     0.007588
      dyz     :     0.000783
      dx2y2   :     0.011443
      dxy     :     0.007493

  7 O s       :     3.802371  s :     3.802371
      pz      :     1.782424  p :     4.482922
      px      :     1.234273
      py      :     1.466226
      dz2     :     0.001845  d :     0.013152
      dxz     :     0.001070
      dyz     :     0.001927
      dx2y2   :     0.002088
      dxy     :     0.006221

  8 O s       :     3.683567  s :     3.683567
      pz      :     1.623652  p :     4.324899
      px      :     1.287091
      py      :     1.414156
      dz2     :     0.002122  d :     0.015005
      dxz     :     0.002452
      dyz     :     0.002889
      dx2y2   :     0.005316
      dxy     :     0.002227

  9 C s       :     3.780644  s :     3.780644
      pz      :     1.575496  p :     3.860297
      px      :     1.344941
      py      :     0.939861
      dz2     :     0.024647  d :     0.113452
      dxz     :     0.017867
      dyz     :     0.029295
      dx2y2   :     0.022863
      dxy     :     0.018780

 10 C s       :     2.277919  s :     2.277919
      pz      :     0.974841  p :     2.394265
      px      :     1.185734
      py      :     0.233690
      dz2     :     0.018824  d :     0.082877
      dxz     :     0.016105
      dyz     :     0.017589
      dx2y2   :     0.015402
      dxy     :     0.014958

 11 C s       :     3.931751  s :     3.931751
      pz      :     0.942939  p :     2.836135
      px      :     0.970290
      py      :     0.922906
      dz2     :     0.012678  d :     0.055614
      dxz     :     0.010546
      dyz     :     0.012607
      dx2y2   :     0.008746
      dxy     :     0.011037

 12 C s       :     2.916260  s :     2.916260
      pz      :     0.559630  p :     2.041993
      px      :     0.580794
      py      :     0.901568
      dz2     :     0.017698  d :     0.086982
      dxz     :     0.014900
      dyz     :     0.020311
      dx2y2   :     0.018391
      dxy     :     0.015682

 13 C s       :     3.490131  s :     3.490131
      pz      :     1.038440  p :     2.954935
      px      :     0.898008
      py      :     1.018486
      dz2     :     0.010499  d :     0.057233
      dxz     :     0.009540
      dyz     :     0.012489
      dx2y2   :     0.012284
      dxy     :     0.012421

 14 C s       :     3.220158  s :     3.220158
      pz      :     1.101767  p :     3.060361
      px      :     1.066035
      py      :     0.892559
      dz2     :     0.014246  d :     0.055094
      dxz     :     0.009900
      dyz     :     0.012027
      dx2y2   :     0.007268
      dxy     :     0.011653

 15 Cls       :     5.646032  s :     5.646032
      pz      :     3.777974  p :    10.999272
      px      :     3.911436
      py      :     3.309861
      dz2     :     0.003615  d :     0.031787
      dxz     :     0.002679
      dyz     :     0.010590
      dx2y2   :     0.008975
      dxy     :     0.005928

 16 Cls       :     5.652209  s :     5.652209
      pz      :     3.310740  p :    11.016105
      px      :     3.769886
      py      :     3.935479
      dz2     :     0.010809  d :     0.031599
      dxz     :     0.011108
      dyz     :     0.005185
      dx2y2   :     0.001772
      dxy     :     0.002725

 17 H s       :     0.796068  s :     0.796068
      pz      :     0.006168  p :     0.025757
      px      :     0.010076
      py      :     0.009514

 18 H s       :     0.785583  s :     0.785583
      pz      :     0.005879  p :     0.025941
      px      :     0.004813
      py      :     0.015249

 19 H s       :     0.794908  s :     0.794908
      pz      :     0.006066  p :     0.026004
      px      :     0.004775
      py      :     0.015164

 20 H s       :     0.621120  s :     0.621120
      pz      :     0.019365  p :     0.064808
      px      :     0.028124
      py      :     0.017320

 21 H s       :     0.767885  s :     0.767885
      pz      :     0.006261  p :     0.026078
      px      :     0.011327
      py      :     0.008490

 22 H s       :     0.786467  s :     0.786467
      pz      :     0.012760  p :     0.025541
      px      :     0.007462
      py      :     0.005319

 23 H s       :     0.775441  s :     0.775441
      pz      :     0.006346  p :     0.025826
      px      :     0.011040
      py      :     0.008440



                     *******************************
                     * LOEWDIN POPULATION ANALYSIS *
                     *******************************

----------------------
LOEWDIN ATOMIC CHARGES
----------------------
   0 C :   -0.095962
   1 C :   -0.036089
   2 C :   -0.052122
   3 C :   -0.011991
   4 C :   -0.079000
   5 C :   -0.267350
   6 Cl:    0.230536
   7 O :   -0.095385
   8 O :   -0.130698
   9 C :   -0.052594
  10 C :   -0.240176
  11 C :   -0.094041
  12 C :   -0.266684
  13 C :   -0.068868
  14 C :   -0.030814
  15 Cl:    0.237132
  16 Cl:    0.268226
  17 H :    0.095337
  18 H :    0.109901
  19 H :    0.108475
  20 H :    0.150384
  21 H :    0.108143
  22 H :    0.099981
  23 H :    0.113658

-------------------------------
LOEWDIN REDUCED ORBITAL CHARGES
-------------------------------
  0 C s       :     2.787789  s :     2.787789
      pz      :     0.998699  p :     3.175653
      px      :     1.095808
      py      :     1.081146
      dz2     :     0.009330  d :     0.132520
      dxz     :     0.014044
      dyz     :     0.015682
      dx2y2   :     0.044604
      dxy     :     0.048861

  1 C s       :     2.776580  s :     2.776580
      pz      :     0.974296  p :     3.129363
      px      :     1.092849
      py      :     1.062219
      dz2     :     0.009046  d :     0.130146
      dxz     :     0.024343
      dyz     :     0.007840
      dx2y2   :     0.041908
      dxy     :     0.047009

  2 C s       :     2.740944  s :     2.740944
      pz      :     1.029225  p :     3.060618
      px      :     0.924546
      py      :     1.106847
      dz2     :     0.019180  d :     0.250560
      dxz     :     0.042715
      dyz     :     0.022659
      dx2y2   :     0.092068
      dxy     :     0.073938

  3 C s       :     2.748056  s :     2.748056
      pz      :     0.961352  p :     3.008738
      px      :     1.023652
      py      :     1.023733
      dz2     :     0.018212  d :     0.255198
      dxz     :     0.037416
      dyz     :     0.038030
      dx2y2   :     0.077715
      dxy     :     0.083825

  4 C s       :     2.779977  s :     2.779977
      pz      :     1.011329  p :     3.172491
      px      :     1.088126
      py      :     1.073036
      dz2     :     0.009667  d :     0.126533
      dxz     :     0.021783
      dyz     :     0.007647
      dx2y2   :     0.044818
      dxy     :     0.042618

  5 C s       :     2.831872  s :     2.831872
      pz      :     1.033710  p :     3.237106
      px      :     1.036023
      py      :     1.167373
      dz2     :     0.013552  d :     0.198372
      dxz     :     0.025484
      dyz     :     0.026026
      dx2y2   :     0.068398
      dxy     :     0.064912

  6 Cls       :     5.635884  s :     5.635884
      pz      :     3.903466  p :    11.098255
      px      :     3.326314
      py      :     3.868475
      dz2     :     0.005119  d :     0.035326
      dxz     :     0.008126
      dyz     :     0.000831
      dx2y2   :     0.012777
      dxy     :     0.008472

  7 O s       :     3.394888  s :     3.394888
      pz      :     1.778709  p :     4.681377
      px      :     1.315122
      py      :     1.587547
      dz2     :     0.002655  d :     0.019119
      dxz     :     0.001731
      dyz     :     0.001998
      dx2y2   :     0.003340
      dxy     :     0.009395

  8 O s       :     3.376259  s :     3.376259
      pz      :     1.703064  p :     4.729301
      px      :     1.469171
      py      :     1.557066
      dz2     :     0.003212  d :     0.025138
      dxz     :     0.003930
      dyz     :     0.004589
      dx2y2   :     0.009001
      dxy     :     0.004406

  9 C s       :     2.751858  s :     2.751858
      pz      :     1.054028  p :     3.050010
      px      :     1.067488
      py      :     0.928494
      dz2     :     0.052606  d :     0.250726
      dxz     :     0.039410
      dyz     :     0.067046
      dx2y2   :     0.050067
      dxy     :     0.041598

 10 C s       :     2.824836  s :     2.824836
      pz      :     1.033183  p :     3.226190
      px      :     1.081492
      py      :     1.111514
      dz2     :     0.040506  d :     0.189151
      dxz     :     0.038920
      dyz     :     0.041721
      dx2y2   :     0.034129
      dxy     :     0.033873

 11 C s       :     2.790093  s :     2.790093
      pz      :     1.075736  p :     3.171994
      px      :     1.033894
      py      :     1.062364
      dz2     :     0.029691  d :     0.131954
      dxz     :     0.025508
      dyz     :     0.032574
      dx2y2   :     0.020018
      dxy     :     0.024163

 12 C s       :     2.832423  s :     2.832423
      pz      :     1.101230  p :     3.237769
      px      :     1.101197
      py      :     1.035342
      dz2     :     0.039102  d :     0.196492
      dxz     :     0.033923
      dyz     :     0.047219
      dx2y2   :     0.039181
      dxy     :     0.037068

 13 C s       :     2.790789  s :     2.790789
      pz      :     1.043228  p :     3.145425
      px      :     1.028595
      py      :     1.073601
      dz2     :     0.022460  d :     0.132654
      dxz     :     0.021010
      dyz     :     0.029604
      dx2y2   :     0.028548
      dxy     :     0.031032

 14 C s       :     2.779133  s :     2.779133
      pz      :     1.043913  p :     3.124479
      px      :     1.021992
      py      :     1.058574
      dz2     :     0.032627  d :     0.127202
      dxz     :     0.023309
      dyz     :     0.030256
      dx2y2   :     0.016970
      dxy     :     0.024041

 15 Cls       :     5.637472  s :     5.637472
      pz      :     3.769535  p :    11.090286
      px      :     3.871516
      py      :     3.449234
      dz2     :     0.003991  d :     0.035110
      dxz     :     0.002929
      dyz     :     0.011764
      dx2y2   :     0.009884
      dxy     :     0.006543

 16 Cls       :     5.633824  s :     5.633824
      pz      :     3.449523  p :    11.063073
      px      :     3.740687
      py      :     3.872863
      dz2     :     0.011916  d :     0.034877
      dxz     :     0.012338
      dyz     :     0.005700
      dx2y2   :     0.001937
      dxy     :     0.002987

 17 H s       :     0.833157  s :     0.833157
      pz      :     0.015486  p :     0.071506
      px      :     0.028740
      py      :     0.027279

 18 H s       :     0.817849  s :     0.817849
      pz      :     0.014620  p :     0.072250
      px      :     0.013012
      py      :     0.044617

 19 H s       :     0.819927  s :     0.819927
      pz      :     0.015394  p :     0.071599
      px      :     0.011924
      py      :     0.044281

 20 H s       :     0.664950  s :     0.664950
      pz      :     0.049556  p :     0.184666
      px      :     0.082504
      py      :     0.052606

 21 H s       :     0.820360  s :     0.820360
      pz      :     0.016279  p :     0.071497
      px      :     0.032008
      py      :     0.023210

 22 H s       :     0.829139  s :     0.829139
      pz      :     0.036693  p :     0.070879
      px      :     0.020358
      py      :     0.013828

 23 H s       :     0.814281  s :     0.814281
      pz      :     0.017351  p :     0.072061
      px      :     0.030906
      py      :     0.023804



                      *****************************
                      * MAYER POPULATION ANALYSIS *
                      *****************************

  NA   - Mulliken gross atomic population
  ZA   - Total nuclear charge
  QA   - Mulliken gross atomic charge
  VA   - Mayer's total valence
  BVA  - Mayer's bonded valence
  FA   - Mayer's free valence

  ATOM       NA         ZA         QA         VA         BVA        FA
  0 C      6.6000     6.0000    -0.6000     4.3751     4.3751    -0.0000
  1 C      5.8841     6.0000     0.1159     4.2013     4.2013    -0.0000
  2 C      6.2152     6.0000    -0.2152     4.2877     4.2877    -0.0000
  3 C      6.8962     6.0000    -0.8962     4.2924     4.2924    -0.0000
  4 C      6.0184     6.0000    -0.0184     3.7910     3.7910    -0.0000
  5 C      5.2370     6.0000     0.7630     1.8802     1.8802    -0.0000
  6 Cl    16.6867    17.0000     0.3133     0.7817     0.7817    -0.0000
  7 O      8.2984     8.0000    -0.2984     1.9369     1.9369     0.0000
  8 O      8.0235     8.0000    -0.0235     1.6187     1.6187    -0.0000
  9 C      7.7544     6.0000    -1.7544     5.9799     5.9799    -0.0000
 10 C      4.7551     6.0000     1.2449     2.4449     2.4449     0.0000
 11 C      6.8235     6.0000    -0.8235     4.9925     4.9925    -0.0000
 12 C      5.0452     6.0000     0.9548     1.4486     1.4486    -0.0000
 13 C      6.5023     6.0000    -0.5023     4.2687     4.2687    -0.0000
 14 C      6.3356     6.0000    -0.3356     4.6979     4.6979     0.0000
 15 Cl    16.6771    17.0000     0.3229     0.8135     0.8135     0.0000
 16 Cl    16.6999    17.0000     0.3001     1.0813     1.0813    -0.0000
 17 H      0.8218     1.0000     0.1782     0.9475     0.9475     0.0000
 18 H      0.8115     1.0000     0.1885     0.9563     0.9563    -0.0000
 19 H      0.8209     1.0000     0.1791     0.9540     0.9540    -0.0000
 20 H      0.6859     1.0000     0.3141     0.9389     0.9389    -0.0000
 21 H      0.7940     1.0000     0.2060     0.9263     0.9263    -0.0000
 22 H      0.8120     1.0000     0.1880     0.9432     0.9432     0.0000
 23 H      0.8013     1.0000     0.1987     0.9473     0.9473     0.0000

  Mayer bond orders larger than 0.100000
B(  0-C ,  1-C ) :   1.4265 B(  0-C ,  4-C ) :   0.2906 B(  0-C ,  5-C ) :   1.1304 
B(  0-C ,  6-Cl) :   0.6891 B(  0-C , 13-C ) :   0.1706 B(  0-C , 17-H ) :   0.9349 
B(  1-C ,  2-C ) :   1.1791 B(  1-C ,  3-C ) :   0.6490 B(  1-C ,  6-Cl) :   0.1592 
B(  1-C ,  9-C ) :  -0.1425 B(  1-C , 10-C ) :   0.1103 B(  1-C , 13-C ) :  -0.1431 
B(  1-C , 18-H ) :   0.9232 B(  2-C ,  3-C ) :   1.3976 B(  2-C ,  4-C ) :  -0.2184 
B(  2-C ,  7-O ) :  -0.5043 B(  2-C ,  8-O ) :   1.7948 B(  2-C ,  9-C ) :   0.4462 
B(  2-C , 18-H ) :   0.1190 B(  2-C , 20-H ) :  -0.1607 B(  3-C ,  4-C ) :   0.9105 
B(  3-C ,  5-C ) :  -0.1091 B(  3-C ,  6-Cl) :   0.1565 B(  3-C ,  7-O ) :   1.8654 
B(  3-C ,  8-O ) :  -0.8510 B(  3-C ,  9-C ) :   0.1763 B(  3-C , 10-C ) :  -0.1848 
B(  3-C , 20-H ) :   0.2011 B(  4-C ,  5-C ) :   1.6715 B(  4-C ,  6-Cl) :   0.6429 
B(  4-C ,  7-O ) :  -0.3390 B(  4-C ,  8-O ) :  -0.1449 B(  4-C ,  9-C ) :  -0.2087 
B(  4-C , 11-C ) :   0.1171 B(  4-C , 19-H ) :   0.8590 B(  5-C ,  6-Cl) :  -0.9139 
B(  7-O , 20-H ) :   0.8622 B(  8-O ,  9-C ) :   1.7196 B(  8-O , 10-C ) :  -0.6601 
B(  8-O , 14-C ) :  -0.1876 B(  9-C , 10-C ) :   1.4754 B(  9-C , 11-C ) :  -0.3858 
B(  9-C , 12-C ) :  -0.2872 B(  9-C , 13-C ) :  -0.2080 B(  9-C , 14-C ) :   1.7145 
B(  9-C , 16-Cl) :   1.3138 B( 10-C , 11-C ) :   1.8473 B( 10-C , 12-C ) :   0.1328 
B( 10-C , 13-C ) :   0.1305 B( 10-C , 14-C ) :   0.6238 B( 10-C , 15-Cl) :   0.1549 
B( 10-C , 16-Cl) :  -1.2956 B( 11-C , 12-C ) :   1.2438 B( 11-C , 13-C ) :   0.2439 
B( 11-C , 14-C ) :  -0.2200 B( 11-C , 15-Cl) :   0.7319 B( 11-C , 16-Cl) :   0.6884 
B( 11-C , 21-H ) :   0.9164 B( 12-C , 13-C ) :   1.2484 B( 12-C , 15-Cl) :  -0.9377 
B( 12-C , 16-Cl) :   0.1156 B( 13-C , 14-C ) :   1.4375 B( 13-C , 15-Cl) :   0.6725 
B( 13-C , 22-H ) :   0.9306 B( 14-C , 15-Cl) :   0.1421 B( 14-C , 16-Cl) :   0.2780 
B( 14-C , 23-H ) :   0.9644 

-------
TIMINGS
-------

Total SCF time: 0 days 0 hours 2 min 53 sec 

Total time                  ....     173.297 sec
Sum of individual times     ....     173.246 sec  (100.0%)

SCF preparation             ....       0.248 sec  (  0.1%)
Fock matrix formation       ....     172.440 sec  ( 99.5%)
  Startup                   ....       0.017 sec  (  0.0% of F)
  Split-RI-J                ....       9.872 sec  (  5.7% of F)
  Chain of spheres X        ....     127.972 sec  ( 74.2% of F)
  XC integration            ....      19.082 sec  ( 11.1% of F)
    Basis function eval.    ....       4.269 sec  ( 22.4% of XC)
    Density eval.           ....       5.625 sec  ( 29.5% of XC)
    XC-Functional eval.     ....       0.323 sec  (  1.7% of XC)
    XC-Potential eval.      ....       8.388 sec  ( 44.0% of XC)
  CPCM terms                ....      15.392 sec  (  8.9% of F)
Diagonalization             ....       0.000 sec  (  0.0%)
Density matrix formation    ....       0.060 sec  (  0.0%)
Total Energy calculation    ....       0.027 sec  (  0.0%)
Population analysis         ....       0.028 sec  (  0.0%)
Orbital Transformation      ....       0.056 sec  (  0.0%)
Orbital Orthonormalization  ....       0.000 sec  (  0.0%)
DIIS solution               ....       0.240 sec  (  0.1%)
SOSCF solution              ....       0.147 sec  (  0.1%)
Finished LeanSCF after 173.4 sec

Maximum memory used throughout the entire LEANSCF-calculation: 80.5 MB

-------------------------   --------------------
FINAL SINGLE POINT ENERGY     -1992.220811123814
-------------------------   --------------------

------------------------------------------------------------------------------
                         ORCA SCF GRADIENT CALCULATION
------------------------------------------------------------------------------

Nuc. rep. gradient        (SHARK) ... done (  0.0 sec)
[...]

  5 C s       :     2.836242  s :     2.836242
      pz      :     1.031313  p :     3.204650
      px      :     1.030524
      py      :     1.142814
      dz2     :     0.015018  d :     0.188981
      dxz     :     0.024541
      dyz     :     0.025308
      dx2y2   :     0.060619
      dxy     :     0.063494

  6 Cls       :     5.659977  s :     5.659977
      pz      :     3.914247  p :    11.117220
      px      :     3.388370
      py      :     3.814603
      dz2     :     0.004551  d :     0.030203
      dxz     :     0.005856
      dyz     :     0.001272
      dx2y2   :     0.008443
      dxy     :     0.010081

  7 O s       :     3.380855  s :     3.380855
      pz      :     1.777127  p :     4.677390
      px      :     1.285121
      py      :     1.615142
      dz2     :     0.002735  d :     0.019375
      dxz     :     0.002162
      dyz     :     0.001625
      dx2y2   :     0.002592
      dxy     :     0.010261

  8 O s       :     3.380499  s :     3.380499
      pz      :     1.662692  p :     4.731482
      px      :     1.481963
      py      :     1.586826
      dz2     :     0.003732  d :     0.025137
      dxz     :     0.005017
      dyz     :     0.005409
      dx2y2   :     0.006368
      dxy     :     0.004611

  9 C s       :     2.749179  s :     2.749179
      pz      :     1.042703  p :     3.042575
      px      :     1.053626
      py      :     0.946245
      dz2     :     0.059380  d :     0.256346
      dxz     :     0.051233
      dyz     :     0.062022
      dx2y2   :     0.045515
      dxy     :     0.038196

 10 C s       :     2.824108  s :     2.824108
      pz      :     1.029035  p :     3.217665
      px      :     1.089687
      py      :     1.098943
      dz2     :     0.046672  d :     0.183957
      dxz     :     0.043466
      dyz     :     0.036212
      dx2y2   :     0.029110
      dxy     :     0.028497

 11 C s       :     2.786955  s :     2.786955
      pz      :     1.094797  p :     3.169093
      px      :     1.040891
      py      :     1.033406
      dz2     :     0.035661  d :     0.133499
      dxz     :     0.032424
      dyz     :     0.031150
      dx2y2   :     0.015415
      dxy     :     0.018849

 12 C s       :     2.834422  s :     2.834422
      pz      :     1.088093  p :     3.222555
      px      :     1.102428
      py      :     1.032034
      dz2     :     0.041595  d :     0.187548
      dxz     :     0.043497
      dyz     :     0.041724
      dx2y2   :     0.029342
      dxy     :     0.031391

 13 C s       :     2.787371  s :     2.787371
      pz      :     1.059598  p :     3.141087
      px      :     1.046095
      py      :     1.035394
      dz2     :     0.028619  d :     0.134062
      dxz     :     0.027599
      dyz     :     0.023374
      dx2y2   :     0.027129
      dxy     :     0.027341

 14 C s       :     2.772535  s :     2.772535
      pz      :     1.059817  p :     3.137117
      px      :     1.041091
      py      :     1.036209
      dz2     :     0.038186  d :     0.128793
      dxz     :     0.029354
      dyz     :     0.027651
      dx2y2   :     0.013306
      dxy     :     0.020296

 15 Cls       :     5.658991  s :     5.658991
      pz      :     3.683628  p :    11.111948
      px      :     3.817363
      py      :     3.610958
      dz2     :     0.003510  d :     0.030709
      dxz     :     0.005632
      dyz     :     0.010555
      dx2y2   :     0.005324
      dxy     :     0.005688

 16 Cls       :     5.646978  s :     5.646978
      pz      :     3.388800  p :    11.076076
      px      :     3.793159
      py      :     3.894117
      dz2     :     0.013260  d :     0.032038
      dxz     :     0.010530
      dyz     :     0.005407
      dx2y2   :     0.001076
      dxy     :     0.001765

 17 H s       :     0.831920  s :     0.831920
      pz      :     0.016249  p :     0.072343
      px      :     0.034039
      py      :     0.022055

 18 H s       :     0.819212  s :     0.819212
      pz      :     0.015510  p :     0.071354
      px      :     0.011617
      py      :     0.044227

 19 H s       :     0.819756  s :     0.819756
      pz      :     0.016830  p :     0.072529
      px      :     0.010830
      py      :     0.044869

 20 H s       :     0.664459  s :     0.664459
      pz      :     0.048133  p :     0.188205
      px      :     0.077544
      py      :     0.062528

 21 H s       :     0.820141  s :     0.820141
      pz      :     0.014311  p :     0.072140
      px      :     0.035789
      py      :     0.022040

 22 H s       :     0.829460  s :     0.829460
      pz      :     0.040052  p :     0.071628
      px      :     0.018021
      py      :     0.013556

 23 H s       :     0.815186  s :     0.815186
      pz      :     0.015073  p :     0.073879
      px      :     0.035673
      py      :     0.023132



                      *****************************
                      * MAYER POPULATION ANALYSIS *
                      *****************************

  NA   - Mulliken gross atomic population
  ZA   - Total nuclear charge
  QA   - Mulliken gross atomic charge
  VA   - Mayer's total valence
  BVA  - Mayer's bonded valence
  FA   - Mayer's free valence

  ATOM       NA         ZA         QA         VA         BVA        FA
  0 C      6.6437     6.0000    -0.6437     4.5037     4.5037     0.0000
  1 C      6.0036     6.0000    -0.0036     4.2990     4.2990    -0.0000
  2 C      6.1678     6.0000    -0.1678     4.0242     4.0242     0.0000
  3 C      6.4452     6.0000    -0.4452     4.4901     4.4901     0.0000
  4 C      6.2317     6.0000    -0.2317     3.9882     3.9882    -0.0000
  5 C      5.1712     6.0000     0.8288     1.9693     1.9693    -0.0000
  6 Cl    16.6656    17.0000     0.3344     0.7993     0.7993    -0.0000
  7 O      8.2945     8.0000    -0.2945     1.9698     1.9698     0.0000
  8 O      8.0082     8.0000    -0.0082     1.5973     1.5973     0.0000
  9 C      8.5221     6.0000    -2.5221     5.3125     5.3125     0.0000
 10 C      4.7474     6.0000     1.2526     4.2549     4.2549     0.0000
 11 C      6.4735     6.0000    -0.4735     4.4368     4.4368    -0.0000
 12 C      4.9232     6.0000     1.0768     0.8797     0.8797    -0.0000
 13 C      6.4502     6.0000    -0.4502     4.0622     4.0622    -0.0000
 14 C      6.3212     6.0000    -0.3212     4.8428     4.8428    -0.0000
 15 Cl    16.6771    17.0000     0.3229     0.7613     0.7613     0.0000
 16 Cl    16.7115    17.0000     0.2885     0.9302     0.9302    -0.0000
 17 H      0.8181     1.0000     0.1819     0.9472     0.9472     0.0000
 18 H      0.8218     1.0000     0.1782     0.9623     0.9623     0.0000
 19 H      0.8178     1.0000     0.1822     0.9524     0.9524     0.0000
 20 H      0.6798     1.0000     0.3202     0.9394     0.9394     0.0000
 21 H      0.7954     1.0000     0.2046     0.9278     0.9278     0.0000
 22 H      0.8128     1.0000     0.1872     0.9426     0.9426     0.0000
 23 H      0.7968     1.0000     0.2032     0.9425     0.9425     0.0000

  Mayer bond orders larger than 0.100000
B(  0-C ,  1-C ) :   1.3574 B(  0-C ,  4-C ) :   0.2919 B(  0-C ,  5-C ) :   1.3103 
B(  0-C ,  6-Cl) :   0.7017 B(  0-C ,  9-C ) :  -0.1349 B(  0-C , 10-C ) :   0.1132 
B(  0-C , 17-H ) :   0.9420 B(  1-C ,  2-C ) :   1.2881 B(  1-C ,  3-C ) :   0.7849 
B(  1-C ,  5-C ) :  -0.1204 B(  1-C ,  6-Cl) :   0.1875 B(  1-C ,  8-O ) :  -0.1509 
B(  1-C ,  9-C ) :   0.2824 B(  1-C , 10-C ) :  -0.1065 B(  1-C , 11-C ) :  -0.1557 
B(  1-C , 14-C ) :   0.1027 B(  1-C , 18-H ) :   0.9348 B(  2-C ,  3-C ) :   1.2455 
B(  2-C ,  5-C ) :   0.1916 B(  2-C ,  7-O ) :  -0.4977 B(  2-C ,  8-O ) :   1.8463 
B(  2-C , 10-C ) :   0.1311 B(  2-C , 11-C ) :   0.1470 B(  2-C , 13-C ) :   0.1003 
B(  2-C , 14-C ) :  -0.2764 B(  2-C , 16-Cl) :  -0.2030 B(  2-C , 20-H ) :  -0.1442 
B(  2-C , 23-H ) :   0.1089 B(  3-C ,  4-C ) :   1.1298 B(  3-C ,  5-C ) :  -0.2252 
B(  3-C ,  6-Cl) :   0.1686 B(  3-C ,  7-O ) :   1.9090 B(  3-C ,  8-O ) :  -0.6827 
B(  3-C ,  9-C ) :   0.1593 B(  3-C , 10-C ) :  -0.2844 B(  3-C , 13-C ) :  -0.1102 
B(  3-C , 14-C ) :   0.1731 B(  3-C , 20-H ) :   0.1692 B(  4-C ,  5-C ) :   1.6325 
B(  4-C ,  6-Cl) :   0.6263 B(  4-C ,  7-O ) :  -0.3892 B(  4-C ,  8-O ) :  -0.1373 
B(  4-C ,  9-C ) :  -0.3180 B(  4-C , 10-C ) :   0.1128 B(  4-C , 11-C ) :   0.1230 
B(  4-C , 19-H ) :   0.8624 B(  5-C ,  6-Cl) :  -0.9047 B(  5-C , 14-C ) :   0.1114 
B(  7-O ,  9-C ) :   0.2372 B(  7-O , 14-C ) :  -0.1821 B(  7-O , 20-H ) :   0.8496 
B(  8-O ,  9-C ) :   1.6384 B(  8-O , 10-C ) :  -0.7277 B(  9-C , 10-C ) :   1.9332 
B(  9-C , 11-C ) :  -1.4575 B(  9-C , 12-C ) :  -0.4820 B(  9-C , 13-C ) :  -0.4730 
B(  9-C , 14-C ) :   1.9154 B(  9-C , 16-Cl) :   1.5800 B(  9-C , 21-H ) :   0.1575 
B( 10-C , 11-C ) :   3.0267 B( 10-C , 13-C ) :   0.3453 B( 10-C , 14-C ) :   1.0425 
B( 10-C , 15-Cl) :   0.1741 B( 10-C , 16-Cl) :  -1.5122 B( 11-C , 12-C ) :   1.0979 
B( 11-C , 14-C ) :  -0.7105 B( 11-C , 15-Cl) :   0.8033 B( 11-C , 16-Cl) :   0.5018 
B( 11-C , 21-H ) :   0.9069 B( 12-C , 13-C ) :   1.2735 B( 12-C , 15-Cl) :  -1.0877 
B( 13-C , 14-C ) :   1.4436 B( 13-C , 15-Cl) :   0.6825 B( 13-C , 22-H ) :   0.9291 
B( 13-C , 23-H ) :  -0.1070 B( 14-C , 15-Cl) :   0.1324 B( 14-C , 16-Cl) :   0.3512 
B( 14-C , 23-H ) :   0.9952 

-------
TIMINGS
-------

Total SCF time: 0 days 0 hours 1 min 37 sec 

Total time                  ....      97.665 sec
Sum of individual times     ....      97.605 sec  ( 99.9%)

SCF preparation             ....       0.255 sec  (  0.3%)
Fock matrix formation       ....      97.096 sec  ( 99.4%)
  Startup                   ....       0.012 sec  (  0.0% of F)
  Split-RI-J                ....       3.998 sec  (  4.1% of F)
  Chain of spheres X        ....      79.151 sec  ( 81.5% of F)
  XC integration            ....       7.655 sec  (  7.9% of F)
    Basis function eval.    ....       1.760 sec  ( 23.0% of XC)
    Density eval.           ....       2.241 sec  ( 29.3% of XC)
    XC-Functional eval.     ....       0.129 sec  (  1.7% of XC)
    XC-Potential eval.      ....       3.335 sec  ( 43.6% of XC)
  CPCM terms                ....       6.237 sec  (  6.4% of F)
Diagonalization             ....       0.000 sec  (  0.0%)
Density matrix formation    ....       0.023 sec  (  0.0%)
Total Energy calculation    ....       0.019 sec  (  0.0%)
Population analysis         ....       0.045 sec  (  0.0%)
Orbital Transformation      ....       0.028 sec  (  0.0%)
Orbital Orthonormalization  ....       0.000 sec  (  0.0%)
DIIS solution               ....       0.031 sec  (  0.0%)
SOSCF solution              ....       0.108 sec  (  0.1%)
Finished LeanSCF after  97.7 sec

Maximum memory used throughout the entire LEANSCF-calculation: 83.6 MB

-------------------------   --------------------
FINAL SINGLE POINT ENERGY     -1992.227583197646
-------------------------   --------------------

                                *** OPTIMIZATION RUN DONE ***


------------------------------------------------------------------------------
                              ORCA PROPERTY CALCULATIONS
------------------------------------------------------------------------------

GBWName                                 ... Triclosan\Triclosan_B3LYP_6-311+G\Triclosan_B3LYP_6-311+G.orcainp.gbw
Number of atoms                         ...     24
Number of basis functions               ...    440
Max core memory                         ...   1024 MB

Electric properties:
Dipole moment                           ... YES
Quadrupole moment                       ...  NO
Static polarizability (Dipole/Dipole)   ...  NO
Static polarizability (Dipole/Quad.)    ...  NO
Static polarizability (Quad./Quad.)     ...  NO
Static polarizability (Velocity)        ...  NO

Atomic electric properties:
Dipole moment                           ...  NO
Quadrupole moment                       ...  NO
Static polarizability                   ...  NO

Choice of electric origin               ... Center of mass
Position of electric origin             ...     4.636799     3.861996    -1.053421

General magnetic properties:
Magnetizability                         ...  NO

EPR properties:
g-Tensor (aka g-matrix)                 ...  NO
Zero-Field splitting spin-orbit         ...  NO
Zero-field splitting spin-spin          ...  NO
Hyperfine couplings                     ...  NO (   0 nuclei)
Quadrupole couplings                    ...  NO (   0 nuclei)
Contact density                         ...  NO (   0 nuclei)

NMR properties:
Chemical shifts                         ...  NO (   0 nuclei)
Spin-rotation constants                 ...  NO (   0 nuclei)
Spin-spin couplings                     ...  NO (   0 nuclei,    0 pairs)

Choice of magnetic origin               ... GIAO
Position of magnetic origin             ...     0.000000     0.000000     0.000000

Properties with geometric perturbations:
SCF Hessian                             ...  NO
IR spectrum                             ...  NO
VCD spectrum                            ...  NO
X-ray spectroscopy properties:
SCF XES/XAS/RIXS spectra                ...  NO


-------------
DIPOLE MOMENT
-------------

Method             : SCF
Type of density    : Electron Density
Multiplicity       :   1
Irrep              :   0
Energy             : -1992.2275831976464815 Eh
Relativity type    : 
Basis              : AO
                                X                 Y                 Z
Electronic contribution:      4.242882611       3.826411414       1.000752047
Nuclear contribution   :     -4.255069592      -3.278183307      -1.388568349
                        -----------------------------------------
Total Dipole Moment    :     -0.012186981       0.548228108      -0.387816302
                        -----------------------------------------
Magnitude (a.u.)       :      0.671642810
Magnitude (Debye)      :      1.707180351



--------------------
Rotational spectrum 
--------------------
 
Rotational constants in cm-1:             0.021833             0.004926             0.004381 
Rotational constants in MHz :           654.537111           147.682250           131.347711 

Dipole components along the rotational axes: 
x,y,z [a.u.] :    -0.413798    -0.499935     0.173032 
x,y,z [Debye]:    -1.051792    -1.270733     0.439813 

 

Dipole moment calculation done in   0.0 sec 

Maximum memory used throughout the entire PROP-calculation: 35.5 MB

--------------------------------
SUGGESTED CITATIONS FOR THIS RUN
--------------------------------

Below you find a list of papers that are relevant to this ORCA run
We neither can nor want to force you to cite these papers, but we appreciate if you do
You receive ORCA, which is the product of decades of hard work by many enthusiastic individuals, for free
The only thing we kindly ask in return is that you cite our papers,
We deeply appreciate it, if you show your appreciation for ORCA by not just citing the generic ORCA reference.

Please note that relegating all ORCA citations to the supporting information does *not* help us.
SI sections are not indexed - citations you put there will not count into any citation statistics
But we need these citations in order to attract the funding resources that allow us to do what we are doing

Therefore, if you are a happy ORCA user, please consider citing a few of the papers listed below in the main body of your paper

In addition to the list printed below, the program has created the file Triclosan\Triclosan_B3LYP_6-311+G\Triclosan_B3LYP_6-311+G.orcainp.bibtex that contains the list in bibtex format
You can import this file easily into all common literature databanks and citation aid programs


List of essential papers. We consider these as the minimum necessary citations

  1. Neese,F.
     Software update: the ORCA program system, version 5.0
     WIRES Comput. Molec. Sci., 2022 12(1)e1606
     doi.org/10.1002/wcms.1606

List of papers to cite with high priority. The work reported in these papers was absolutely
necessary for this run to complete.
Our perspective: the developers of density functionals and basis sets usually get cited in chemistry papers
Good! But without the algorithms to do something with them, the functionals or basis sets would not do anything.
Hence, in our opinion, the algorithm design and method developments papers are equally worthy of getting cited

  1. Neese,F.
     An improvement of the resolution of the identity approximation for the formation of the Coulomb matrix
     J. Comp. Chem., 2003 24(14)1740-1747
     doi.org/10.1002/jcc.10318
  2. Neese,F.; Wennmohs,F.; Hansen,A.; Becker,U.
     Efficient, approximate and parallel Hartree-Fock and hybrid DFT calculations. A 'chain-of-spheres' algorithm for the Hartree-Fock exchange
     Chem. Phys., 2009 356(1-3)98-109
     doi.org/10.1016/j.chemphys.2008.10.036
  3. Garcia-Rates,M.; Neese,F.
     Effect of the Solute Cavity on the Solvation Energy and its Derivatives within the Framework of the Gaussian Charge Scheme
     J. Comput. Chem., 2020 41 922-939
     doi.org/10.1002/jcc.26139
  4. Helmich-Paris,B.; de Souza,B.; Neese,F.; Izsák,R.
     An improved chain of spheres for exchange algorithm
     J. Chem. Phys., 2021 155 104109
     doi.org/doi: 10.1063/5.0058766.
  5. Neese,F.
     The SHARK Integral Generation and Digestion System
     J. Comp. Chem., 2022  1-16
     doi.org/10.1002/jcc.26942

List of suggested additional citations. These are papers that are important in the 'surrounding' of 
of this run, or papers that preceded the highly important papers. If you like your results we are grateful for a citation.

  1. Izsak,R.; Neese,F.
     An overlap fitted chain of spheres exchange method
     J. Chem. Phys., 2011 135 144105
     doi.org/10.1063/1.3646921
  2. Izsak,R.; Hansen,A.; Neese,F.
     The resolution of identity and chain of spheres approximations for the LPNO-CCSD singles Fock term
     Molec. Phys., 2012 110 2413-2417
     doi.org/10.1080/00268976.2012.687466
  3. Neese,F.
     The ORCA program system
     WIRES Comput. Molec. Sci., 2012 2(1)73-78
     doi.org/10.1002/wcms.81
  4. Izsak,R.; Neese,F.; Klopper,W.
     Robust fitting techniques in the chain of spheres approximation to the Fock exchange: The role of the complementary space
     J. Chem. Phys., 2013 139 
     doi.org/10.1063/1.4819264
  5. Neese,F.
     Software update: the ORCA program system, version 4.0
     WIRES Comput. Molec. Sci., 2018 8(1)1-6
     doi.org/10.1002/wcms.1327
  6. Neese,F.; Wennmohs,F.; Becker,U.; Riplinger,C.
     The ORCA quantum chemistry program package
     J. Chem. Phys., 2020 152 Art. No. L224108
     doi.org/10.1063/5.0004608

List of optional additional citations

  1. Neese,F.
     Approximate second-order SCF convergence for spin unrestricted wavefunctions
     Chem. Phys. Lett., 2000 325(1-3)93-98
     doi.org/10.1016/s0009-2614(00)00662-x

Timings for individual modules:

Sum of individual times          ...     4364.621 sec (=  72.744 min)
Startup calculation              ...       37.242 sec (=   0.621 min)   0.9 %
SCF iterations                   ...     2300.217 sec (=  38.337 min)  52.7 %
Property calculations            ...        0.104 sec (=   0.002 min)   0.0 %
SCF Gradient evaluation          ...     2026.943 sec (=  33.782 min)  46.4 %
Geometry relaxation              ...        0.115 sec (=   0.002 min)   0.0 %
                             ****ORCA TERMINATED NORMALLY****
TOTAL RUN TIME: 0 days 1 hours 12 minutes 46 seconds 124 msec
