
                                 *****************
                                 * O   R   C   A *
                                 *****************

                                            #,                                       
                                            ###                                      
                                            ####                                     
                                            #####                                    
                                            ######                                   
                                           ########,                                 
                                     ,,################,,,,,                         
                               ,,#################################,,                 
                          ,,##########################################,,             
                       ,#########################################, ''#####,          
                    ,#############################################,,   '####,        
                  ,##################################################,,,,####,       
                ,###########''''           ''''###############################       
              ,#####''   ,,,,##########,,,,          '''####'''          '####       
            ,##' ,,,,###########################,,,                        '##       
           ' ,,###''''                  '''############,,,                           
         ,,##''                                '''############,,,,        ,,,,,,###''
      ,#''                                            '''#######################'''  
     '                                                          ''''####''''         
             ,#######,   #######,   ,#######,      ##                                
            ,#'     '#,  ##    ##  ,#'     '#,    #''#        ,####,   ,####,        
            ##       ##  ##   ,#'  ##            #'  '#       #'       #'  '#        
            ##       ##  #######   ##           ,######,      #####,   #    #        
            '#,     ,#'  ##    ##  '#,     ,#' ,#      #,     #,   #   #,  ,#        
             '#######'   ##     ##  '#######'  #'      '#     '####' # '####'        



                #########################################################
                #                        -***-                          #
                #          Department of theory and spectroscopy        #
                #                                                       #
                #                      Frank Neese                      #
                #                                                       #
                #     Directorship, Architecture, Infrastructure        #
                #                    SHARK, DRIVERS                     #
                #        Core code/Algorithms in most modules           #
                #                                                       #
                #        Max Planck Institute fuer Kohlenforschung      #
                #                Kaiser Wilhelm Platz 1                 #
                #                 D-45470 Muelheim/Ruhr                 #
                #                      Germany                          #
                #                                                       #
                #                  All rights reserved                  #
                #                        -***-                          #
                #########################################################


                         Program Version 6.0.0  -   RELEASE   -


 With contributions from (in alphabetic order):
   Daniel Aravena         : Magnetic Suceptibility
   Michael Atanasov       : Ab Initio Ligand Field Theory (pilot matlab implementation)
   Alexander A. Auer      : GIAO ZORA, VPT2 properties, NMR spectrum
   Ute Becker             : All parallelization in ORCA, NUMFREQ, NUMCALC
   Giovanni Bistoni       : ED, misc. LED, open-shell LED, HFLD
   Martin Brehm           : Molecular dynamics
   Dmytro Bykov           : pre 5.0 version of the SCF Hessian
   Marcos Casanova-Páez   : Triplet and SCS-CIS(D). UHF-(DLPNO)-IP/EA/STEOM-CCSD. UHF-CVS-IP/STEOM-CCSD
   Vijay G. Chilkuri      : MRCI spin determinant printing, contributions to CSF-ICE
   Pauline Colinet        : FMM embedding
   Dipayan Datta          : RHF DLPNO-CCSD density
   Achintya Kumar Dutta   : EOM-CC, STEOM-CC
   Nicolas Foglia         : Exact transition moments, OPA infrastructure, MCD improvements
   Dmitry Ganyushin       : Spin-Orbit,Spin-Spin,Magnetic field MRCI
   Miquel Garcia          : C-PCM and meta-GGA Hessian, CCSD/C-PCM, Gaussian charge scheme
   Tiago L. C. Gouveia    : GS-ROHF, GS-ROCIS
   Yang Guo               : DLPNO-NEVPT2, F12-NEVPT2, CIM, IAO-localization
   Andreas Hansen         : Spin unrestricted coupled pair/coupled cluster methods
   Ingolf Harden          : AUTO-CI MPn and infrastructure 
   Benjamin Helmich-Paris : MC-RPA, TRAH-(SCF,CASSCF), AVAS, COSX integrals, SCF dyn. polar.
   Lee Huntington         : MR-EOM, pCC
   Robert Izsak           : Overlap fitted RIJCOSX, COSX-SCS-MP3, EOM
   Riya Kayal             : Wick's Theorem for AUTO-CI, AUTO-CI UHF-CCSDT
   Emily Kempfer          : AUTO-CI, RHF CISDT and CCSDT
   Christian Kollmar      : KDIIS, OOCD, Brueckner-CCSD(T), CCSD density, CASPT2, CASPT2-K, improved NEVPT2
   Axel Koslowski         : Symmetry handling
   Simone Kossmann        : Meta GGA functionals, TD-DFT gradient, OOMP2, (MP2 Hessian; deprecated post 5.0)
   Lucas Lang             : DCDCAS
   Marvin Lechner         : AUTO-CI (C++ implementation), FIC-MRCC
   Spencer Leger          : CASSCF response
   Dagmar Lenk            : GEPOL surface, SMD, ORCA-2-JSON
   Dimitrios Liakos       : Extrapolation schemes; Compound Job, initial MDCI parallelization
   Dimitrios Manganas     : Further ROCIS development; embedding schemes. LFT, Crystal Embedding
   Dimitrios Pantazis     : SARC Basis sets
   Anastasios Papadopoulos: AUTO-CI, single reference methods and gradients
   Taras Petrenko         : pre 6.0 DFT Hessian and TD-DFT gradient, (ASA, deprecated), ECA, 1-Electron XAS/XES, NRVS
   Peter Pinski           : DLPNO-MP2, DLPNO-MP2 Gradient
   Christoph Reimann      : Effective Core Potentials
   Marius Retegan         : Local ZFS, SOC
   Christoph Riplinger    : Optimizer, TS searches, QM/MM, DLPNO-CCSD(T), (RO)-DLPNO pert. Triples
   Michael Roemelt        : Original ROCIS implementation
   Masaaki Saitow         : Open-shell DLPNO-CCSD energy and density
   Barbara Sandhoefer     : DKH picture change effects
   Kantharuban Sivalingam : CASSCF convergence/infrastructure, NEVPT2 and variants, FIC-MRCI
   Bernardo de Souza      : ESD, SOC TD-DFT
   Georgi Stoychev        : AutoAux, RI-MP2 NMR, DLPNO-MP2 response, X2C
   Van Anh Tran           : RI-MP2 g-tensors
   Willem Van den Heuvel  : Paramagnetic NMR
   Zikuan Wang            : NOTCH, Electric field optimization 
   Frank Wennmohs         : Technical directorship and infrastructure
   Hang Xu                : AUTO-CI-Response properties 


 We gratefully acknowledge several colleagues who have allowed us to
 interface, adapt or use parts of their codes:
   Stefan Grimme, W. Hujo, H. Kruse, P. Pracht,  : VdW corrections, initial TS optimization,
                  C. Bannwarth, S. Ehlert,         DFT functionals, gCP, sTDA/sTD-DF
                  L. Wittmann, M. Mueller
   Ed Valeev, F. Pavosevic, A. Kumar             : LibInt (2-el integral package), F12 methods
   Garnet Chan, S. Sharma, J. Yang, R. Olivares  : DMRG
   Ulf Ekstrom                                   : XCFun DFT Library
   Mihaly Kallay                                 : mrcc  (arbitrary order and MRCC methods)
   Frank Weinhold                                : gennbo (NPA and NBO analysis)
   Simon Mueller                                 : openCOSMO-RS
   Christopher J. Cramer and Donald G. Truhlar   : smd solvation model
   Lars Goerigk                                  : TD-DFT with DH, B97 family of functionals
   V. Asgeirsson, H. Jonsson                     : NEB implementation
   FAccTs GmbH                                   : IRC, NEB, NEB-TS, DLPNO-Multilevel, CI-OPT
                                                   MM, QMMM, 2- and 3-layer-ONIOM, Crystal-QMMM,
                                                   LR-CPCM, SF, NACMEs, symmetry and pop. for TD-DFT,
                                                   nearIR, NL-DFT gradient (VV10), updates on ESD,
                                                   ML-optimized integration grids, MBIS, APM,
                                                   GOAT, DOCKER, SOLVATOR, interface openCOSMO-RS
   S Lehtola, MJT Oliveira, MAL Marques          : LibXC Library
   Liviu Ungur et al                             : ANISO software


 Your calculation uses the libint2 library for the computation of 2-el integrals
 For citations please refer to: http://libint.valeyev.net

 Your ORCA version has been built with support for libXC version: 6.2.2
 For citations please refer to: https://libxc.gitlab.io

 This ORCA versions uses:
   CBLAS   interface :  Fast vector & matrix operations
   LAPACKE interface :  Fast linear algebra routines
   Shared memory     :  Shared parallel matrices


Warning: RI is on but no J-basis has been assigned. Assigning Def2/J (nothing to worry about!)
================================================================================

----- Orbital basis set information -----
Your calculation utilizes the basis: def2-TZVP
   F. Weigend and R. Ahlrichs, Phys. Chem. Chem. Phys. 7, 3297 (2005).

----- AuxJ basis set information -----
Your calculation utilizes the auxiliary basis: def2/J
   F. Weigend, Phys. Chem. Chem. Phys. 8, 1057 (2006).

================================================================================
                                        WARNINGS
                       Please study these warnings very carefully!
================================================================================


WARNING: Geometry Optimization
  ===> : Switching off AutoStart
         For restart on a previous wavefunction, please use MOREAD

================================================================================
                                       INPUT FILE
================================================================================
NAME = Ibuprofen\Ibuprofen_B3LYP_def2-TZVP\Ibuprofen_B3LYP_def2-TZVP.orcainp
|  1> # ORCA input file
|  2> # 
|  3> !B3LYP def2-TZVP Opt CPCM(WATER)
|  4> * xyz 0 1
|  5>    C        2.84251         1.01411        -0.69096
|  6>    C        2.43769        -0.00906         0.37461
|  7>    C        0.91575        -0.01278         0.53493
|  8>    C        2.94670        -1.42385         0.03470
|  9>    C        4.45251        -1.51309        -0.08791
| 10>    C        5.27723        -1.21555         1.00286
| 11>    C        6.66758        -1.27499         0.88204
| 12>    C        7.26810        -1.65638        -0.32751
| 13>    C        6.43770        -1.95835        -1.41751
| 14>    C        5.04670        -1.88539        -1.29902
| 15>    C        8.78387        -1.78842        -0.41169
| 16>    C        9.16418        -3.23508        -0.74382
| 17>    C        9.51321        -0.83979        -1.36214
| 18>    O        8.78146         0.15695        -1.90506
| 19>    O       10.71031        -0.94017        -1.60515
| 20>    H        2.47037         2.01046        -0.43077
| 21>    H        2.43869         0.74424        -1.67252
| 22>    H        3.93059         1.08959        -0.77972
| 23>    H        2.86857         0.31218         1.33176
| 24>    H        0.41895        -0.36301        -0.37626
| 25>    H        0.54619         0.99434         0.75501
| 26>    H        0.61306        -0.66604         1.36024
| 27>    H        2.47811        -1.76575        -0.89972
| 28>    H        2.62532        -2.13383         0.80693
| 29>    H        4.84079        -0.93717         1.96023
| 30>    H        7.27498        -1.03913         1.75499
| 31>    H        6.86200        -2.26456        -2.37291
| 32>    H        4.42920        -2.12815        -2.16163
| 33>    H        9.19524        -1.55445         0.58086
| 34>    H        8.80273        -3.53129        -1.73562
| 35>    H        8.74197        -3.93027        -0.01021
| 36>    H       10.25123        -3.36973        -0.74622
| 37>    H        7.84710         0.18033        -1.63398
| 38> *
| 39> 
| 40>                          ****END OF INPUT****
================================================================================

                       *****************************
                       * Geometry Optimization Run *
                       *****************************

Geometry optimization settings:
Update method            Update   .... BFGS
Choice of coordinates    CoordSys .... (2022) Redundant Internals
Initial Hessian          InHess   .... Almloef's Model
Max. no of cycles        MaxIter  .... 99

Convergence Tolerances:
Energy Change            TolE     ....  5.0000e-06 Eh
Max. Gradient            TolMAXG  ....  3.0000e-04 Eh/bohr
RMS Gradient             TolRMSG  ....  1.0000e-04 Eh/bohr
Max. Displacement        TolMAXD  ....  4.0000e-03 bohr
RMS Displacement         TolRMSD  ....  2.0000e-03 bohr
Strict Convergence                .... False

------------------------------------------------------------------------------
                        ORCA OPTIMIZATION COORDINATE SETUP
------------------------------------------------------------------------------

The optimization will be done in redundant internal coordinates (2022)
Making redundant internal coordinates   ...  (2022 redundants) done
Evaluating the initial hessian          ...  (Almloef) done
Evaluating the coordinates              ...  done
Calculating the B-matrix                .... done
Calculating the G-matrix                .... done
Diagonalizing the G-matrix              .... done
Small eigenvalue found = 1.016e-02
Small eigenvalue found = 1.828e-02
Small eigenvalue found = 2.477e-02
Small eigenvalue found = 2.537e-02
The first mode is                       ....   64
The number of degrees of freedom        ....   93

    -----------------------------------------------------------------
                    Redundant Internal Coordinates


    -----------------------------------------------------------------
         Definition                    Initial Value    Approx d2E/dq
    -----------------------------------------------------------------
      1. B(C   1,C   0)                  1.5317         0.371209   
      2. B(C   2,C   1)                  1.5304         0.373074   
      3. B(C   3,C   1)                  1.5415         0.358105   
      4. B(C   4,C   3)                  1.5134         0.397026   
      5. B(C   5,C   4)                  1.3995         0.603469   
      6. B(C   6,C   5)                  1.3969         0.609259   
      7. B(C   7,C   6)                  1.4032         0.595125   
      8. B(C   8,C   7)                  1.4032         0.595315   
      9. B(C   9,C   8)                  1.3979         0.606829   
     10. B(C   9,C   4)                  1.3994         0.603481   
     11. B(C  10,C   7)                  1.5238         0.382129   
     12. B(C  11,C  10)                  1.5322         0.370508   
     13. B(C  12,C  10)                  1.5281         0.376146   
     14. B(O  13,C  12)                  1.3504         0.647109   
     15. B(O  14,C  12)                  1.2256         1.023555   
     16. B(H  15,C   0)                  1.0949         0.353620   
     17. B(H  16,C   0)                  1.0952         0.353347   
     18. B(H  17,C   0)                  1.0943         0.354456   
     19. B(H  18,C   1)                  1.0977         0.350031   
     20. B(H  19,C   2)                  1.0953         0.353123   
     21. B(H  20,C   2)                  1.0951         0.353383   
     22. B(H  21,C   2)                  1.0952         0.353261   
     23. B(H  22,C   3)                  1.0998         0.347336   
     24. B(H  23,C   3)                  1.0971         0.350789   
     25. B(H  24,C   5)                  1.0884         0.362273   
     26. B(H  25,C   6)                  1.0893         0.361008   
     27. B(H  26,C   8)                  1.0893         0.361021   
     28. B(H  27,C   9)                  1.0883         0.362394   
     29. B(H  28,C  10)                  1.0996         0.347620   
     30. B(H  29,C  11)                  1.0964         0.351755   
     31. B(H  30,C  11)                  1.0953         0.353126   
     32. B(H  31,C  11)                  1.0954         0.353078   
     33. B(H  32,H  17)                  4.1104         0.000001   
     34. B(H  32,O  13)                  0.9732         0.495399   
     35. A(C   1,C   0,H  15)          110.6526         0.323017   
     36. A(H  15,C   0,H  17)          107.1245         0.289294   
     37. A(C   1,C   0,H  17)          111.4253         0.323142   
     38. A(H  16,C   0,H  17)          108.1157         0.289259   
     39. A(C   1,C   0,H  16)          111.1892         0.322976   
     40. A(H  15,C   0,H  16)          108.1733         0.289152   
     41. A(C   0,C   1,C   3)          111.8640         0.360347   
     42. A(C   2,C   1,H  18)          107.4413         0.322742   
     43. A(C   2,C   1,C   3)          110.4416         0.360655   
     44. A(C   3,C   1,H  18)          109.3441         0.320586   
     45. A(C   0,C   1,H  18)          107.9002         0.322477   
     46. A(C   0,C   1,C   2)          109.7146         0.362874   
     47. A(C   1,C   2,H  19)          111.3889         0.323208   
     48. A(H  20,C   2,H  21)          107.6878         0.289111   
     49. A(C   1,C   2,H  20)          110.7578         0.323247   
     50. A(H  19,C   2,H  21)          108.1076         0.289077   
     51. A(C   1,C   2,H  21)          110.8084         0.323229   
     52. A(H  19,C   2,H  20)          107.9492         0.289093   
     53. A(C   1,C   3,H  23)          109.9986         0.320699   
     54. A(C   4,C   3,H  22)          109.6792         0.325643   
     55. A(H  22,C   3,H  23)          105.7853         0.288014   
     56. A(C   1,C   3,C   4)          113.6108         0.364508   
     57. A(C   1,C   3,H  22)          109.3884         0.320181   
     58. A(C   4,C   3,H  23)          108.0784         0.326174   
     59. A(C   5,C   4,C   9)          118.7426         0.429872   
     60. A(C   3,C   4,C   5)          120.7083         0.399051   
     61. A(C   3,C   4,C   9)          120.5474         0.399052   
     62. A(C   4,C   5,C   6)          120.6710         0.430608   
     63. A(C   6,C   5,H  24)          119.0850         0.352225   
     64. A(C   4,C   5,H  24)          120.2436         0.351657   
     65. A(C   5,C   6,C   7)          120.8024         0.429533   
     66. A(C   7,C   6,H  25)          120.7293         0.350623   
     67. A(C   5,C   6,H  25)          118.4553         0.352017   
     68. A(C   8,C   7,C  10)          121.8107         0.395434   
     69. A(C   6,C   7,C  10)          119.7920         0.395412   
     70. A(C   6,C   7,C   8)          118.3476         0.427753   
     71. A(C   9,C   8,H  26)          118.4631         0.351781   
     72. A(C   7,C   8,C   9)          120.7834         0.429250   
     73. A(C   7,C   8,H  26)          120.7509         0.350645   
     74. A(C   4,C   9,C   8)          120.6450         0.430301   
     75. A(C   4,C   9,H  27)          120.2912         0.351678   
     76. A(C   8,C   9,H  27)          119.0629         0.352007   
     77. A(C   7,C  10,C  11)          109.9180         0.364247   
     78. A(C  12,C  10,H  28)          104.5235         0.322810   
     79. A(C  11,C  10,H  28)          107.6797         0.322013   
     80. A(C   7,C  10,H  28)          107.6876         0.323647   
     81. A(C  11,C  10,C  12)          109.4402         0.363265   
     82. A(C   7,C  10,C  12)          117.0853         0.365189   
     83. A(H  30,C  11,H  31)          107.8176         0.289054   
     84. A(H  29,C  11,H  31)          106.9766         0.288878   
     85. A(C  10,C  11,H  31)          111.2758         0.322836   
     86. A(H  29,C  11,H  30)          107.8981         0.288884   
     87. A(C  10,C  11,H  30)          111.0011         0.322843   
     88. A(C  10,C  11,H  29)          111.6747         0.322637   
     89. A(O  13,C  12,O  14)          120.6625         0.472893   
     90. A(C  10,C  12,O  14)          122.5912         0.431349   
     91. A(C  10,C  12,O  13)          116.7192         0.397601   
     92. A(C  12,O  13,H  32)          115.2135         0.369761   
     93. D(C   3,C   1,C   0,H  15)    179.9333         0.011011   
     94. D(C   2,C   1,C   0,H  15)     57.0081         0.011011   
     95. D(C   3,C   1,C   0,H  17)    -60.9928         0.011011   
     96. D(C   3,C   1,C   0,H  16)     59.6949         0.011011   
     97. D(C   2,C   1,C   0,H  16)    -63.2302         0.011011   
     98. D(C   2,C   1,C   0,H  17)    176.0820         0.011011   
     99. D(H  19,C   2,C   1,C   3)    -58.6057         0.011115   
    100. D(H  19,C   2,C   1,C   0)     65.1560         0.011115   
    101. D(H  20,C   2,C   1,H  18)     62.0502         0.011115   
    102. D(H  20,C   2,C   1,C   3)   -178.7644         0.011115   
    103. D(H  20,C   2,C   1,C   0)    -55.0027         0.011115   
    104. D(H  19,C   2,C   1,H  18)   -177.7911         0.011115   
    105. D(C   4,C   3,C   1,H  18)    -59.7670         0.010296   
    106. D(C   4,C   3,C   1,C   0)     59.6963         0.010296   
    107. D(C   4,C   3,C   1,C   2)   -177.7921         0.010296   
    108. D(H  22,C   3,C   1,H  18)    177.3144         0.010296   
    109. D(H  22,C   3,C   1,C   2)     59.2893         0.010296   
    110. D(H  22,C   3,C   1,C   0)    -63.2223         0.010296   
    111. D(C   9,C   4,C   3,C   1)   -118.0954         0.011706   
    112. D(C   5,C   4,C   3,H  23)    -60.9507         0.011706   
    113. D(C   5,C   4,C   3,H  22)   -175.8268         0.011706   
    114. D(C   9,C   4,C   3,H  22)      4.6633         0.011706   
    115. D(C   5,C   4,C   3,C   1)     61.4145         0.011706   
    116. D(H  24,C   5,C   4,C   9)   -179.1235         0.025121   
    117. D(C   6,C   5,C   4,C   9)      0.6709         0.025121   
    118. D(H  24,C   5,C   4,C   3)      1.3579         0.025121   
    119. D(C   6,C   5,C   4,C   3)   -178.8477         0.025121   
    120. D(H  25,C   6,C   5,H  24)     -0.0190         0.025633   
    121. D(H  25,C   6,C   5,C   4)   -179.8158         0.025633   
    122. D(C   7,C   6,C   5,C   4)     -1.1136         0.025633   
    123. D(C   7,C   6,C   5,H  24)    178.6831         0.025633   
    124. D(C  10,C   7,C   6,H  25)      2.0638         0.024395   
    125. D(C  10,C   7,C   6,C   5)   -176.6087         0.024395   
    126. D(C   8,C   7,C   6,H  25)    179.5470         0.024395   
    127. D(C   8,C   7,C   6,C   5)      0.8745         0.024395   
    128. D(H  26,C   8,C   7,C  10)     -2.1906         0.024411   
    129. D(H  26,C   8,C   7,C   6)   -179.6203         0.024411   
    130. D(C   9,C   8,C   7,C  10)    177.2047         0.024411   
    131. D(C   9,C   8,C   7,C   6)     -0.2251         0.024411   
    132. D(H  27,C   9,C   8,C   7)   -179.8436         0.025417   
    133. D(C   4,C   9,C   8,H  26)    179.2119         0.025417   
    134. D(C   4,C   9,C   8,C   7)     -0.1970         0.025417   
    135. D(H  27,C   9,C   4,C   5)    179.6203         0.025122   
    136. D(H  27,C   9,C   4,C   3)     -0.8604         0.025122   
    137. D(C   8,C   9,C   4,C   5)     -0.0220         0.025122   
    138. D(H  27,C   9,C   8,H  26)     -0.4347         0.025417   
    139. D(C   8,C   9,C   4,C   3)    179.4974         0.025122   
    140. D(H  28,C  10,C   7,C   6)      0.7505         0.010889   
    141. D(C  12,C  10,C   7,C   8)     66.0519         0.010889   
    142. D(C  12,C  10,C   7,C   6)   -116.5547         0.010889   
    143. D(C  11,C  10,C   7,C   8)    -59.6037         0.010889   
    144. D(C  11,C  10,C   7,C   6)    117.7897         0.010889   
    145. D(H  30,C  11,C  10,H  28)     60.7848         0.010972   
    146. D(H  30,C  11,C  10,C  12)    173.8403         0.010972   
    147. D(H  30,C  11,C  10,C   7)    -56.2593         0.010972   
    148. D(H  29,C  11,C  10,H  28)   -178.7637         0.010972   
    149. D(H  29,C  11,C  10,C  12)    -65.7082         0.010972   
    150. D(H  29,C  11,C  10,C   7)     64.1922         0.010972   
    151. D(O  14,C  12,C  10,C  11)    -46.9849         0.010571   
    152. D(O  14,C  12,C  10,C   7)   -172.8776         0.010571   
    153. D(O  13,C  12,C  10,H  28)   -110.0046         0.010571   
    154. D(O  13,C  12,C  10,C  11)    134.9005         0.010571   
    155. D(O  13,C  12,C  10,C   7)      9.0077         0.010571   
    156. D(H  32,O  13,C  12,O  14)   -177.9128         0.030925   
    157. D(H  32,O  13,C  12,C  10)      0.2405         0.030925   
    -----------------------------------------------------------------

Number of atoms                         .... 33
Number of degrees of freedom            .... 157


         *************************************************************
         *                GEOMETRY OPTIMIZATION CYCLE   1            *
         *************************************************************
---------------------------------
CARTESIAN COORDINATES (ANGSTROEM)
---------------------------------
  C      2.842510    1.014110   -0.690960
  C      2.437690   -0.009060    0.374610
  C      0.915750   -0.012780    0.534930
  C      2.946700   -1.423850    0.034700
  C      4.452510   -1.513090   -0.087910
  C      5.277230   -1.215550    1.002860
  C      6.667580   -1.274990    0.882040
  C      7.268100   -1.656380   -0.327510
  C      6.437700   -1.958350   -1.417510
  C      5.046700   -1.885390   -1.299020
  C      8.783870   -1.788420   -0.411690
  C      9.164180   -3.235080   -0.743820
  C      9.513210   -0.839790   -1.362140
  O      8.781460    0.156950   -1.905060
  O     10.710310   -0.940170   -1.605150
  H      2.470370    2.010460   -0.430770
  H      2.438690    0.744240   -1.672520
  H      3.930590    1.089590   -0.779720
  H      2.868570    0.312180    1.331760
  H      0.418950   -0.363010   -0.376260
  H      0.546190    0.994340    0.755010
  H      0.613060   -0.666040    1.360240
  H      2.478110   -1.765750   -0.899720
  H      2.625320   -2.133830    0.806930
  H      4.840790   -0.937170    1.960230
  H      7.274980   -1.039130    1.754990
  H      6.862000   -2.264560   -2.372910
  H      4.429200   -2.128150   -2.161630
  H      9.195240   -1.554450    0.580860
  H      8.802730   -3.531290   -1.735620
  H      8.741970   -3.930270   -0.010210
  H     10.251230   -3.369730   -0.746220
  H      7.847100    0.180330   -1.633980

----------------------------
CARTESIAN COORDINATES (A.U.)
----------------------------
  NO LB      ZA    FRAG     MASS         X           Y           Z
   0 C     6.0000    0    12.011    5.371565    1.916390   -1.305725
   1 C     6.0000    0    12.011    4.606566   -0.017121    0.707910
   2 C     6.0000    0    12.011    1.730517   -0.024151    1.010871
   3 C     6.0000    0    12.011    5.568456   -2.690687    0.065573
   4 C     6.0000    0    12.011    8.414025   -2.859326   -0.166126
   5 C     6.0000    0    12.011    9.972519   -2.297057    1.895131
   6 C     6.0000    0    12.011   12.599900   -2.409382    1.666814
   7 C     6.0000    0    12.011   13.734719   -3.130105   -0.618904
   8 C     6.0000    0    12.011   12.165490   -3.700745   -2.678706
   9 C     6.0000    0    12.011    9.536881   -3.562871   -2.454792
  10 C     6.0000    0    12.011   16.599109   -3.379624   -0.777981
  11 C     6.0000    0    12.011   17.317790   -6.113415   -1.405616
  12 C     6.0000    0    12.011   17.977362   -1.586973   -2.574072
  13 O     8.0000    0    15.999   16.594554    0.296593   -3.600042
  14 O     8.0000    0    15.999   20.239553   -1.776664   -3.033294
  15 H     1.0000    0     1.008    4.668323    3.799219   -0.814037
  16 H     1.0000    0     1.008    4.608456    1.406410   -3.160605
  17 H     1.0000    0     1.008    7.427739    2.059027   -1.473457
  18 H     1.0000    0     1.008    5.420812    0.589935    2.516662
  19 H     1.0000    0     1.008    0.791701   -0.685989   -0.711028
  20 H     1.0000    0     1.008    1.032150    1.879030    1.426762
  21 H     1.0000    0     1.008    1.158516   -1.258633    2.570481
  22 H     1.0000    0     1.008    4.682949   -3.336784   -1.700224
  23 H     1.0000    0     1.008    4.961136   -4.032354    1.524877
  24 H     1.0000    0     1.008    9.147767   -1.770995    3.704298
  25 H     1.0000    0     1.008   13.747720   -1.963671    3.316450
  26 H     1.0000    0     1.008   12.967301   -4.279398   -4.484150
  27 H     1.0000    0     1.008    8.369975   -4.021621   -4.084889
  28 H     1.0000    0     1.008   17.376485   -2.937485    1.097666
  29 H     1.0000    0     1.008   16.634749   -6.673171   -3.279846
  30 H     1.0000    0     1.008   16.519929   -7.427134   -0.019294
  31 H     1.0000    0     1.008   19.372017   -6.367867   -1.410151
  32 H     1.0000    0     1.008   14.828870    0.340774   -3.087775

--------------------------------
INTERNAL COORDINATES (ANGSTROEM)
--------------------------------
 C      0   0   0     0.000000000000     0.00000000     0.00000000
 C      1   0   0     1.531729579985     0.00000000     0.00000000
 C      2   1   0     1.530365219286   109.71462294     0.00000000
 C      2   1   3     1.541512482045   111.86401706   122.92518346
 C      4   2   1     1.513426822083   113.61082143    59.69630834
 C      5   4   2     1.399454294681   120.70831907    61.41445029
 C      6   5   4     1.396854934666   120.67102574   181.15234846
 C      7   6   5     1.403244029027   120.80241279   358.88635262
 C      8   7   6     1.403157168994   118.34759068     0.87448519
 C      9   8   7     1.397942789137   120.78338492   359.77494972
 C      8   7   6     1.523837106419   119.79202825   183.39127563
 C     11   8   7     1.532243841104   109.91799153   117.78969411
 C     11   8   7     1.528133147013   117.08534531   243.44529816
 O     13  11   8     1.350448376096   116.71918838     9.00774310
 O     13  11   8     1.225633882732   122.59119007   187.12239043
 H      1   2   3     1.094943075324   110.65261736    57.00811835
 H      1   2   3     1.095153159563   111.18923518   296.76975473
 H      1   2   3     1.094300532029   111.42529722   176.08204879
 H      2   1   3     1.097719834247   107.90021058   243.23514575
 H      3   2   1     1.095325754741   111.38885930    65.15597338
 H      3   2   1     1.095125789305   110.75780569   304.99727656
 H      3   2   1     1.095219822593   110.80840791   185.54919722
 H      4   2   1     1.099824047064   109.38835291   296.77771846
 H      4   2   1     1.097130747769   109.99855324   180.99406380
 H      6   5   4     1.088362354595   120.24364158     1.35791652
 H      7   6   5     1.089314647886   118.45534345   180.18423661
 H      9   8   7     1.089304463454   120.75086099   180.37967587
 H     10   9   8     1.088271418213   119.06285400   180.15643017
 H     11   8   7     1.099601173290   107.68759136     0.75054335
 H     12  11   8     1.096382098814   111.67474472    64.19221545
 H     12  11   8     1.095323720322   111.00105965   303.74073201
 H     12  11   8     1.095360253524   111.27581512   183.66021351
 H     14  13  11     0.973169872324   115.21354677     0.24050772

---------------------------
INTERNAL COORDINATES (A.U.)
---------------------------
 C      0   0   0     0.000000000000     0.00000000     0.00000000
 C      1   0   0     2.894549417397     0.00000000     0.00000000
 C      2   1   0     2.891971149329   109.71462294     0.00000000
 C      2   1   3     2.913036423086   111.86401706   122.92518346
 C      4   2   1     2.859962217467   113.61082143    59.69630834
 C      5   4   2     2.644585353886   120.70831907    61.41445029
 C      6   5   4     2.639673275335   120.67102574   181.15234846
 C      7   6   5     2.651746913921   120.80241279   358.88635262
 C      8   7   6     2.651582772247   118.34759068     0.87448519
 C      9   8   7     2.641729022359   120.78338492   359.77494972
 C      8   7   6     2.879634803839   119.79202825   183.39127563
 C     11   8   7     2.895521230073   109.91799153   117.78969411
 C     11   8   7     2.887753144022   117.08534531   243.44529816
 O     13  11   8     2.551977588820   116.71918838     9.00774310
 O     13  11   8     2.316112378817   122.59119007   187.12239043
 H      1   2   3     2.069142544596   110.65261736    57.00811835
 H      1   2   3     2.069539546272   111.18923518   296.76975473
 H      1   2   3     2.067928313740   111.42529722   176.08204879
 H      2   1   3     2.074389858501   107.90021058   243.23514575
 H      3   2   1     2.069865703892   111.38885930    65.15597338
 H      3   2   1     2.069487823980   110.75780569   304.99727656
 H      3   2   1     2.069665521142   110.80840791   185.54919722
 H      4   2   1     2.078366244452   109.38835291   296.77771846
 H      4   2   1     2.073276646388   109.99855324   180.99406380
 H      6   5   4     2.056706784655   120.24364158     1.35791652
 H      7   6   5     2.058506358174   118.45534345   180.18423661
 H      9   8   7     2.058487112385   120.75086099   180.37967587
 H     10   9   8     2.056534939797   119.06285400   180.15643017
 H     11   8   7     2.077945074056   107.68759136     0.75054335
 H     12  11   8     2.071861904892   111.67474472    64.19221545
 H     12  11   8     2.069861859396   111.00105965   303.74073201
 H     12  11   8     2.069930897143   111.27581512   183.66021351
 H     14  13  11     1.839024540476   115.21354677     0.24050772

---------------------
BASIS SET INFORMATION
---------------------
There are 3 groups of distinct atoms

 Group   1 Type C   : 11s6p2d1f contracted to 5s3p2d1f pattern {62111/411/11/1}
 Group   2 Type O   : 11s6p2d1f contracted to 5s3p2d1f pattern {62111/411/11/1}
 Group   3 Type H   : 5s1p contracted to 3s1p pattern {311/1}

Atom   0C    basis set group =>   1
Atom   1C    basis set group =>   1
Atom   2C    basis set group =>   1
Atom   3C    basis set group =>   1
Atom   4C    basis set group =>   1
Atom   5C    basis set group =>   1
Atom   6C    basis set group =>   1
Atom   7C    basis set group =>   1
Atom   8C    basis set group =>   1
Atom   9C    basis set group =>   1
Atom  10C    basis set group =>   1
Atom  11C    basis set group =>   1
Atom  12C    basis set group =>   1
Atom  13O    basis set group =>   2
Atom  14O    basis set group =>   2
Atom  15H    basis set group =>   3
Atom  16H    basis set group =>   3
Atom  17H    basis set group =>   3
Atom  18H    basis set group =>   3
Atom  19H    basis set group =>   3
Atom  20H    basis set group =>   3
Atom  21H    basis set group =>   3
Atom  22H    basis set group =>   3
Atom  23H    basis set group =>   3
Atom  24H    basis set group =>   3
Atom  25H    basis set group =>   3
Atom  26H    basis set group =>   3
Atom  27H    basis set group =>   3
Atom  28H    basis set group =>   3
Atom  29H    basis set group =>   3
Atom  30H    basis set group =>   3
Atom  31H    basis set group =>   3
Atom  32H    basis set group =>   3
---------------------------------
AUXILIARY/J BASIS SET INFORMATION
---------------------------------
There are 3 groups of distinct atoms

 Group   1 Type C   : 12s5p4d2f1g contracted to 6s4p3d1f1g pattern {711111/2111/211/2/1}
 Group   2 Type O   : 12s5p4d2f1g contracted to 6s4p3d1f1g pattern {711111/2111/211/2/1}
 Group   3 Type H   : 5s2p1d contracted to 3s1p1d pattern {311/2/1}

Atom   0C    basis set group =>   1
Atom   1C    basis set group =>   1
Atom   2C    basis set group =>   1
Atom   3C    basis set group =>   1
Atom   4C    basis set group =>   1
Atom   5C    basis set group =>   1
Atom   6C    basis set group =>   1
Atom   7C    basis set group =>   1
Atom   8C    basis set group =>   1
Atom   9C    basis set group =>   1
Atom  10C    basis set group =>   1
Atom  11C    basis set group =>   1
Atom  12C    basis set group =>   1
Atom  13O    basis set group =>   2
Atom  14O    basis set group =>   2
Atom  15H    basis set group =>   3
Atom  16H    basis set group =>   3
Atom  17H    basis set group =>   3
Atom  18H    basis set group =>   3
Atom  19H    basis set group =>   3
Atom  20H    basis set group =>   3
Atom  21H    basis set group =>   3
Atom  22H    basis set group =>   3
Atom  23H    basis set group =>   3
Atom  24H    basis set group =>   3
Atom  25H    basis set group =>   3
Atom  26H    basis set group =>   3
Atom  27H    basis set group =>   3
Atom  28H    basis set group =>   3
Atom  29H    basis set group =>   3
Atom  30H    basis set group =>   3
Atom  31H    basis set group =>   3
Atom  32H    basis set group =>   3
------------------------------------------------------------------------------
                             ORCA STARTUP CALCULATIONS
                           -- RI-GTO INTEGRALS CHOSEN --
------------------------------------------------------------------------------
------------------------------------------------------------------------------
                   ___                                                        
                  /   \      - P O W E R E D   B Y -                         
                 /     \                                                     
                 |  |  |   _    _      __       _____    __    __             
                 |  |  |  | |  | |    /  \     |  _  \  |  |  /  |          
                  \  \/   | |  | |   /    \    | | | |  |  | /  /          
                 / \  \   | |__| |  /  /\  \   | |_| |  |  |/  /          
                |  |  |   |  __  | /  /__\  \  |    /   |      \           
                |  |  |   | |  | | |   __   |  |    \   |  |\   \          
                \     /   | |  | | |  |  |  |  | |\  \  |  | \   \       
                 \___/    |_|  |_| |__|  |__|  |_| \__\ |__|  \__/        
                                                                              
                      - O R C A' S   B I G   F R I E N D -                    
                                      &                                       
                       - I N T E G R A L  F E E D E R -                       
                                                                              
 v1 FN, 2020, v2 2021, v3 2022-2024                                           
------------------------------------------------------------------------------


----------------------
SHARK INTEGRAL PACKAGE
----------------------

Number of atoms                             ...     33
Number of basis functions                   ...    573
Number of shells                            ...    237
Maximum angular momentum                    ...      3
Integral batch strategy                     ... SHARK/LIBINT Hybrid
RI-J (if used) integral strategy            ... SPLIT-RIJ (Revised 2003 algorithm where possible)
Printlevel                                  ...      1
Contraction scheme used                     ... SEGMENTED contraction
Prescreening option                         ... SCHWARTZ
   Thresh                                   ... 2.500e-11
   Tcut                                     ... 2.500e-12
   Tpresel                                  ... 2.500e-12 
Coulomb Range Separation                    ... NOT USED
Exchange Range Separation                   ... NOT USED
Multipole approximations                    ... NOT USED
Finite Nucleus Model                        ... NOT USED
CABS basis                                  ... NOT available
Auxiliary Coulomb fitting basis             ... AVAILABLE
   # of basis functions in Aux-J            ...    933
   # of shells in Aux-J                     ...    315
   Maximum angular momentum in Aux-J        ...      4
Auxiliary J/K fitting basis                 ... NOT available
Auxiliary Correlation fitting basis         ... NOT available
Auxiliary 'external' fitting basis          ... NOT available

Checking pre-screening integrals            ... done (  0.0 sec) Dimension = 237
Check shell pair data                       ... done (  0.0 sec)
Shell pair information
Shell pair cut-off parameter TPreSel        ...   2.5e-12
Total number of shell pairs                 ...     28203
Shell pairs after pre-screening             ...     21408
Total number of primitive shell pairs       ...     83820
Primitive shell pairs kept                  ...     44533
          la=0 lb=0:   6198 shell pairs
          la=1 lb=0:   6323 shell pairs
          la=1 lb=1:   1634 shell pairs
          la=2 lb=0:   2904 shell pairs
          la=2 lb=1:   1475 shell pairs
          la=2 lb=2:    357 shell pairs
          la=3 lb=0:   1390 shell pairs
          la=3 lb=1:    716 shell pairs
          la=3 lb=2:    323 shell pairs
          la=3 lb=3:     88 shell pairs

Calculating one electron integrals          ... done (  0.1 sec)
Calculating RI/J V-Matrix + Cholesky decomp.... done (  0.0 sec)
Calculating Nuclear repulsion               ... done (  0.0 sec) ENN=    968.504549123236 Eh

Diagonalization of the overlap matrix:
Smallest eigenvalue                        ... 6.632e-06
Time for diagonalization                   ...    0.021 sec
Threshold for overlap eigenvalues          ... 1.000e-07
Number of eigenvalues below threshold      ... 0
Time for construction of square roots      ...    0.016 sec
Total time needed                          ...    0.039 sec

-------------------
DFT GRID GENERATION
-------------------

General Integration Accuracy     IntAcc      ... 4.388
Radial Grid Type                 RadialGrid  ... OptM3 with GC (2021)
Angular Grid (max. ang.)         AngularGrid ... 4 (Lebedev-302)
Angular grid pruning method      GridPruning ... 4 (adaptive)
Weight generation scheme         WeightScheme... mBecke (2022)
Basis function cutoff            BFCut       ... 1.0000e-11
Integration weight cutoff        WCut        ... 1.0000e-14
Partially contracted basis set               ... off
Rotationally invariant grid construction     ... off
Angular grids for H and He will be reduced by one unit

Total number of grid points                  ...   146952
Total number of batches                      ...     2315
Average number of points per batch           ...       63
Average number of grid points per atom       ...     4453

--------------------
COSX GRID GENERATION
--------------------

GRIDX 1
-------
General Integration Accuracy     IntAcc      ... 3.816
Radial Grid Type                 RadialGrid  ... OptM3 with GC (2021)
Angular Grid (max. ang.)         AngularGrid ... 1 (Lebedev-50)
Angular grid pruning method      GridPruning ... 4 (adaptive)
Weight generation scheme         WeightScheme... mBecke (2022)
Basis function cutoff            BFCut       ... 1.0000e-11
Integration weight cutoff        WCut        ... 1.0000e-14
Partially contracted basis set               ... on
Rotationally invariant grid construction     ... off
Angular grids for H and He will be reduced by one unit

Total number of grid points                  ...    18730
Total number of batches                      ...      165
Average number of points per batch           ...      113
Average number of grid points per atom       ...      568
UseSFitting                                  ... on

GRIDX 2
-------
General Integration Accuracy     IntAcc      ... 4.020
Radial Grid Type                 RadialGrid  ... OptM3 with GC (2021)
Angular Grid (max. ang.)         AngularGrid ... 2 (Lebedev-110)
Angular grid pruning method      GridPruning ... 4 (adaptive)
Weight generation scheme         WeightScheme... mBecke (2022)
Basis function cutoff            BFCut       ... 1.0000e-11
Integration weight cutoff        WCut        ... 1.0000e-14
Partially contracted basis set               ... on
Rotationally invariant grid construction     ... off
Angular grids for H and He will be reduced by one unit

Total number of grid points                  ...    39738
Total number of batches                      ...      329
Average number of points per batch           ...      120
Average number of grid points per atom       ...     1204
UseSFitting                                  ... on

GRIDX 3
-------
General Integration Accuracy     IntAcc      ... 4.338
Radial Grid Type                 RadialGrid  ... OptM3 with GC (2021)
Angular Grid (max. ang.)         AngularGrid ... 3 (Lebedev-194)
Angular grid pruning method      GridPruning ... 4 (adaptive)
Weight generation scheme         WeightScheme... mBecke (2022)
Basis function cutoff            BFCut       ... 1.0000e-11
Integration weight cutoff        WCut        ... 1.0000e-14
Partially contracted basis set               ... on
Rotationally invariant grid construction     ... off
Angular grids for H and He will be reduced by one unit

Total number of grid points                  ...    86711
Total number of batches                      ...      695
Average number of points per batch           ...      124
Average number of grid points per atom       ...     2628
UseSFitting                                  ... on
Initializing property integral containers    ... done (  0.0 sec)

SHARK setup successfully completed in   3.1 seconds

Maximum memory used throughout the entire STARTUP-calculation: 97.1 MB
-------------------------------------------------------------------------------
                                 ORCA GUESS
                   Start orbitals & Density for SCF / CASSCF
-------------------------------------------------------------------------------

------------
SCF SETTINGS
------------
Hamiltonian:
 Density Functional     Method          .... DFT(GTOs)
 Exchange Functional    Exchange        .... B88
   X-Alpha parameter    XAlpha          ....  0.666667
   Becke's b parameter  XBeta           ....  0.004200
 Correlation Functional Correlation     .... LYP
 LDA part of GGA corr.  LDAOpt          .... VWN-5
 Gradients option       PostSCFGGA      .... off
 Hybrid DFT is turned on
   Fraction HF Exchange ScalHFX         ....  0.200000
   Scaling of DF-GGA-X  ScalDFX         ....  0.720000
   Scaling of DF-GGA-C  ScalDFC         ....  0.810000
   Scaling of DF-LDA-C  ScalLDAC        ....  1.000000
   Perturbative correction              ....  0.000000
   NL short-range parameter             ....  4.800000
 RI-approximation to the Coulomb term is turned on
   Number of AuxJ basis functions       .... 933
   RIJ-COSX (HFX calculated with COS-X)).... on


General Settings:
 Integral files         IntName         .... Ibuprofen\Ibuprofen_B3LYP_def2-TZVP\Ibuprofen_B3LYP_def2-TZVP.orcainp
 Hartree-Fock type      HFTyp           .... RHF
 Total Charge           Charge          ....    0
 Multiplicity           Mult            ....    1
 Number of Electrons    NEL             ....  112
 Basis Dimension        Dim             ....  573
 Nuclear Repulsion      ENuc            ....    968.5045491232 Eh

Convergence Acceleration:
 AO-DIIS                CNVDIIS         .... on
   Start iteration      DIISMaxIt       ....    12
   Startup error        DIISStart       ....  0.200000
   # of expansion vecs  DIISMaxEq       ....     5
   Bias factor          DIISBfac        ....   1.050
   Max. coefficient     DIISMaxC        ....  10.000
 MO-DIIS                CNVKDIIS        .... off
 Trust-Rad. Augm. Hess. CNVTRAH         .... auto
   Auto Start mean grad. ratio tolernc. ....  1.125000
   Auto Start start iteration           ....    50
   Auto Start num. interpolation iter.  ....    10
   Max. Number of Micro iterations      ....    24
   Max. Number of Macro iterations      .... Maxiter - #DIIS iter
   Number of Davidson start vectors     ....     2
   Converg. threshold    (grad. norm)   ....   1.000e-05
   Grad. Scal. Fac. for Micro threshold ....   0.100
   Minimum threshold for Micro iter.    ....   1.000e-02
   NR start threshold (gradient norm)   ....   1.000e-04
   Initial trust radius                 ....   0.400
   Minimum AH scaling param. (alpha)    ....   1.000
   Maximum AH scaling param. (alpha)    .... 1000.000
   Quad. conv. algorithm                .... NR
   White noise on init. David. guess    .... on
   Maximum white noise                  ....   0.010
   Pseudo random numbers                .... off
   Inactive MOs                         .... canonical
   Orbital update algorithm             .... Taylor
   Preconditioner                       .... Diag
   Full preconditioner red. dimension   ....   250
 SOSCF                  CNVSOSCF        .... on
   Start iteration      SOSCFMaxIt      ....   150
   Startup grad/error   SOSCFStart      ....  0.003300
   Hessian update       SOSCFHessUp     .... L-BFGS
 Level Shifting         CNVShift        .... on
   Level shift para.    LevelShift      ....    0.2500
   Turn off err/grad.   ShiftErr        ....    0.0010
 Zerner damping         CNVZerner       .... off
 Static damping         CNVDamp         .... on
   Fraction old density DampFac         ....    0.7000
   Max. Damping (<1)    DampMax         ....    0.9800
   Min. Damping (>=0)   DampMin         ....    0.0000
   Turn off err/grad.   DampErr         ....    0.1000

SCF Procedure:
 Maximum # iterations   MaxIter         ....   125
 SCF integral mode      SCFMode         .... Direct
   Integral package                     .... SHARK and LIBINT hybrid scheme
 Reset frequency        DirectResetFreq ....    20
 Integral Threshold     Thresh          ....  2.500e-11 Eh
 Primitive CutOff       TCut            ....  2.500e-12 Eh

Convergence Tolerance:
 Convergence Check Mode ConvCheckMode   .... Total+1el-Energy
 Convergence forced     ConvForced      .... 0
 Energy Change          TolE            ....  1.000e-08 Eh
 1-El. energy change                    ....  1.000e-05 Eh
 Orbital Gradient       TolG            ....  1.000e-05
 Orbital Rotation angle TolX            ....  1.000e-05
 DIIS Error             TolErr          ....  5.000e-07

------------------------------
INITIAL GUESS: MODEL POTENTIAL
------------------------------
Loading Hartree-Fock densities                     ... done
Calculating cut-offs                               ... done
Initializing the effective Hamiltonian             ... done
Setting up the integral package (SHARK)            ... done
Starting the Coulomb interaction                   ... done (   0.6 sec)
Making the grid                                    ... done (   0.3 sec)
Mapping shells                                     ... done
Starting the XC term evaluation                    ... done (   0.8 sec)
  promolecular density results
     # of electrons  =    111.998148380
     EX              =    -88.581814608
     EC              =     -3.734564402
     EX+EC           =    -92.316379010
Transforming the Hamiltonian                       ... done (   0.0 sec)
Diagonalizing the Hamiltonian                      ... done (   0.0 sec)
Back transforming the eigenvectors                 ... done (   0.0 sec)
Now organizing SCF variables                       ... done
                      ------------------
                      INITIAL GUESS DONE (   1.8 sec)
                      ------------------
             **** ENERGY FILE WAS UPDATED (Ibuprofen\Ibuprofen_B3LYP_def2-TZVP\Ibuprofen_B3LYP_def2-TZVP.orcainp.en.tmp) ****
Finished Guess after   1.9 sec
Maximum memory used throughout the entire GUESS-calculation: 68.1 MB

-------------------------------------------------------------------------------------------
                                      ORCA LEAN-SCF
                              memory conserving SCF solver
-------------------------------------------------------------------------------------------

--------------------
CPCM SOLVATION MODEL
--------------------
CPCM parameters:
  Epsilon                                         ...      80.1510
  Refrac                                          ...       1.3328
  Rsolv                                           ...       1.3000
  Surface type                                    ... GAUSSIAN VDW
  Discretization scheme                           ... Constant charge density
    Threshold for H atoms                         ...       5.0000 (charges/Ang^2)
    Threshold for non-H atoms                     ...       5.0000 (charges/Ang^2)
  Epsilon function type                           ...         CPCM
Solvent:                                          ... WATER
Radii:
  Scheme                                          ... Element-dependent radii
  Radius for C  used is    3.8550 Bohr (=   2.0400 Ang.)
  Radius for O  used is    3.4469 Bohr (=   1.8240 Ang.)
  Radius for H  used is    2.4944 Bohr (=   1.3200 Ang.)
Calculating surface                               ...        done! (  0.0s)
Cavity surface points                             ...         2790
Cavity Volume                                     ...    1840.2604
Cavity Surface-area                               ...     988.4408
Calculating surface distance matrix               ...        done! (  0.0s)
Performing Cholesky decomposition & store         ...        done! (  0.1s)
Overall time for CPCM initialization              ...                 0.2s

----------------------------------------D-I-I-S--------------------------------------------
Iteration    Energy (Eh)           Delta-E    RMSDP     MaxDP     DIISErr   Damp  Time(sec)
-------------------------------------------------------------------------------------------
               ***  Starting incremental Fock matrix formation  ***
    1    -656.0474202209255736     0.00e+00  1.51e-03  2.58e-01  2.99e-01  0.700  24.3
    2    -656.2855500899221397    -2.38e-01  1.18e-03  2.23e-01  1.13e-01  0.700  13.0
                               ***Turning on AO-DIIS***
    3    -656.3786704501695795    -9.31e-02  4.06e-04  4.13e-02  3.83e-02  0.700  12.7
    4    -656.4342751940477001    -5.56e-02  6.21e-04  2.44e-02  1.85e-02  0.000  12.1
    5    -656.5561591540327981    -1.22e-01  2.34e-04  4.43e-02  6.33e-03  0.000  12.5
                              *** Initializing SOSCF ***
---------------------------------------S-O-S-C-F--------------------------------------
Iteration    Energy (Eh)           Delta-E    RMSDP     MaxDP     MaxGrad    Time(sec)
--------------------------------------------------------------------------------------
    6    -656.5568953358261979    -7.36e-04  8.69e-05  1.26e-02  1.79e-03    11.4
               *** Restarting incremental Fock matrix formation ***
    7    -656.5569276457657679    -3.23e-05  6.18e-05  7.29e-03  1.81e-04    23.9
    8    -656.5569283385451627    -6.93e-07  1.44e-05  6.89e-04  2.94e-04    17.2
    9    -656.5569325520092434    -4.21e-06  1.19e-05  1.22e-03  7.47e-05    15.4
   10    -656.5569324812792047     7.07e-08  3.21e-06  2.67e-04  5.81e-05    14.9
   11    -656.5569328950094814    -4.14e-07  3.57e-06  4.74e-04  1.38e-05    12.9
   12    -656.5569328854852529     9.52e-09  1.30e-06  2.59e-04  2.38e-05    11.9
                 **** Energy Check signals convergence ****

               *****************************************************
               *                     SUCCESS                       *
               *           SCF CONVERGED AFTER  12 CYCLES          *
               *****************************************************

Recomputing exchange energy using gridx3       ... done (   38.000 sec)
Old exchange energy                            :    -18.057741359 Eh
New exchange energy                            :    -18.057760635 Eh
Exchange energy change after final integration :     -0.000019276 Eh
Total energy after final integration           :   -656.556952161 Eh
             **** ENERGY FILE WAS UPDATED (Ibuprofen\Ibuprofen_B3LYP_def2-TZVP\Ibuprofen_B3LYP_def2-TZVP.orcainp.en.tmp) ****

----------------
TOTAL SCF ENERGY
----------------

Total Energy       :       -656.55695216111428 Eh          -17865.82295 eV

Components:
Nuclear Repulsion  :        968.50454912323642 Eh           26354.34861 eV
Electronic Energy  :      -1625.04162855868253 Eh          -44219.63080 eV
One Electron Energy:      -2811.42247706456374 Eh          -76502.69492 eV
Two Electron Energy:       1186.38084850588120 Eh           32283.06413 eV
CPCM Dielectric    :         -0.01985345003921 Eh              -0.54024 eV

Virial components:
Potential Energy   :      -1309.83705573721750 Eh          -35642.47832 eV
Kinetic Energy     :        653.28010357610322 Eh           17776.65537 eV
Virial Ratio       :          2.00501599324252

DFT components:
N(Alpha)           :       55.999994438296 electrons
N(Beta)            :       55.999994438296 electrons
N(Total)           :      111.999988876591 electrons
E(X)               :      -71.709934984158 Eh       
E(C)               :       -4.412413267551 Eh       
E(XC)              :      -76.122348251709 Eh       

CPCM Solvation Model Properties:
Surface-charge          :         -0.03535120053797
Corrected charge        :          0.00000000000000
Outlying charge corr.   :          0.00007282668155 Eh               0.00198 eV
Free-energy (cav+disp)  :  This term is not implemented in the current solvation scheme

---------------
SCF CONVERGENCE
---------------

  Last Energy change         ...   -9.5242e-09  Tolerance :   1.0000e-08
  Last MAX-Density change    ...    2.5915e-04  Tolerance :   1.0000e-07
  Last RMS-Density change    ...    1.2957e-06  Tolerance :   5.0000e-09
  Last DIIS Error            ...    1.7890e-03  Tolerance :   5.0000e-07
  Last Orbital Gradient      ...    2.3789e-05  Tolerance :   1.0000e-05
  Last Orbital Rotation      ...    2.5660e-05  Tolerance :   1.0000e-05


----------------
ORBITAL ENERGIES
----------------

  NO   OCC          E(Eh)            E(eV) 
   0   2.0000     -19.177647      -521.8503 
   1   2.0000     -19.121314      -520.3174 
   2   2.0000     -10.315942      -280.7111 
   3   2.0000     -10.198324      -277.5105 
   4   2.0000     -10.187509      -277.2162 
   5   2.0000     -10.180679      -277.0303 
   6   2.0000     -10.177230      -276.9365 
   7   2.0000     -10.176656      -276.9209 
   8   2.0000     -10.172779      -276.8154 
   9   2.0000     -10.172108      -276.7971 
  10   2.0000     -10.168245      -276.6920 
  11   2.0000     -10.163757      -276.5699 
  12   2.0000     -10.163359      -276.5591 
  13   2.0000     -10.148996      -276.1682 
  14   2.0000     -10.148097      -276.1438 
  15   2.0000      -1.104437       -30.0532 
  16   2.0000      -1.022946       -27.8358 
  17   2.0000      -0.865288       -23.5457 
  18   2.0000      -0.817337       -22.2409 
  19   2.0000      -0.791889       -21.5484 
  20   2.0000      -0.746675       -20.3181 
  21   2.0000      -0.740470       -20.1492 
  22   2.0000      -0.677253       -18.4290 
  23   2.0000      -0.674157       -18.3448 
  24   2.0000      -0.656747       -17.8710 
  25   2.0000      -0.621103       -16.9011 
  26   2.0000      -0.610205       -16.6045 
  27   2.0000      -0.585234       -15.9250 
  28   2.0000      -0.553650       -15.0656 
  29   2.0000      -0.527765       -14.3612 
  30   2.0000      -0.497300       -13.5322 
  31   2.0000      -0.475378       -12.9357 
  32   2.0000      -0.466488       -12.6938 
  33   2.0000      -0.455479       -12.3942 
  34   2.0000      -0.450646       -12.2627 
  35   2.0000      -0.447020       -12.1640 
  36   2.0000      -0.431990       -11.7551 
  37   2.0000      -0.427786       -11.6406 
  38   2.0000      -0.419272       -11.4090 
  39   2.0000      -0.410895       -11.1810 
  40   2.0000      -0.400855       -10.9078 
  41   2.0000      -0.386078       -10.5057 
  42   2.0000      -0.378081       -10.2881 
  43   2.0000      -0.368791       -10.0353 
  44   2.0000      -0.367287        -9.9944 
  45   2.0000      -0.361993        -9.8503 
  46   2.0000      -0.355759        -9.6807 
  47   2.0000      -0.341141        -9.2829 
  48   2.0000      -0.339479        -9.2377 
  49   2.0000      -0.328828        -8.9479 
  50   2.0000      -0.327775        -8.9192 
  51   2.0000      -0.320306        -8.7160 
  52   2.0000      -0.314454        -8.5567 
  53   2.0000      -0.292068        -7.9476 
  54   2.0000      -0.258855        -7.0438 
  55   2.0000      -0.242968        -6.6115 
  56   0.0000      -0.021385        -0.5819 
  57   0.0000      -0.015738        -0.4282 
  58   0.0000      -0.008208        -0.2234 
  59   0.0000       0.032962         0.8969 
  60   0.0000       0.047516         1.2930 
  61   0.0000       0.062113         1.6902 
  62   0.0000       0.065161         1.7731 
  63   0.0000       0.073910         2.0112 
  64   0.0000       0.079179         2.1546 
  65   0.0000       0.085336         2.3221 
  66   0.0000       0.090329         2.4580 
*Only the first 10 virtual orbitals were printed.

                    ********************************
                    * MULLIKEN POPULATION ANALYSIS *
                    ********************************

-----------------------
MULLIKEN ATOMIC CHARGES
-----------------------
   0 C :   -0.386254
   1 C :    0.009571
   2 C :   -0.370686
   3 C :   -0.212222
   4 C :    0.157391
   5 C :   -0.221347
   6 C :   -0.197457
   7 C :    0.001058
   8 C :   -0.217185
   9 C :   -0.184348
  10 C :    0.042817
  11 C :   -0.391544
  12 C :    0.298339
  13 O :   -0.369564
  14 O :   -0.398435
  15 H :    0.118287
  16 H :    0.107892
  17 H :    0.123310
  18 H :    0.076066
  19 H :    0.109941
  20 H :    0.117362
  21 H :    0.114690
  22 H :    0.114112
  23 H :    0.109709
  24 H :    0.138796
  25 H :    0.138659
  26 H :    0.146323
  27 H :    0.136086
  28 H :    0.122974
  29 H :    0.130360
  30 H :    0.132407
  31 H :    0.127536
  32 H :    0.375353
Sum of atomic charges:    0.0000000

--------------------------------
MULLIKEN REDUCED ORBITAL CHARGES
--------------------------------
  0 C s       :     3.296852  s :     3.296852
      pz      :     0.984992  p :     3.036956
      px      :     1.051145
      py      :     1.000819
      dz2     :     0.018726  d :     0.048781
      dxz     :     0.006935
      dyz     :     0.004074
      dx2y2   :     0.012788
      dxy     :     0.006258
      f0      :     0.000488  f :     0.003665
      f+1     :     0.000495
      f-1     :     0.000843
      f+2     :     0.000597
      f-2     :     0.000345
      f+3     :     0.000714
      f-3     :     0.000183

  1 C s       :     3.155343  s :     3.155343
      pz      :     0.928402  p :     2.691036
      px      :     0.888847
      py      :     0.873787
      dz2     :     0.023715  d :     0.135895
      dxz     :     0.026414
      dyz     :     0.023291
      dx2y2   :     0.030849
      dxy     :     0.031626
      f0      :     0.000980  f :     0.008155
      f+1     :     0.000728
      f-1     :     0.001254
      f+2     :     0.001503
      f-2     :     0.000649
      f+3     :     0.001221
      f-3     :     0.001819

  2 C s       :     3.299409  s :     3.299409
      pz      :     1.048507  p :     3.018635
      px      :     0.918082
      py      :     1.052046
      dz2     :     0.003386  d :     0.048932
      dxz     :     0.018630
      dyz     :     0.005119
      dx2y2   :     0.006364
      dxy     :     0.015433
      f0      :     0.000329  f :     0.003709
      f+1     :     0.000524
      f-1     :     0.000588
      f+2     :     0.000763
      f-2     :    -0.000006
      f+3     :     0.000718
      f-3     :     0.000794

  3 C s       :     3.252916  s :     3.252916
      pz      :     1.042602  p :     2.873597
      px      :     0.883669
      py      :     0.947326
      dz2     :     0.007217  d :     0.080109
      dxz     :     0.015742
      dyz     :     0.017522
      dx2y2   :     0.014991
      dxy     :     0.024637
      f0      :     0.000525  f :     0.005599
      f+1     :     0.000666
      f-1     :     0.000782
      f+2     :     0.001034
      f-2     :     0.000232
      f+3     :     0.001033
      f-3     :     0.001327

  4 C s       :     3.194247  s :     3.194247
      pz      :     0.832492  p :     2.514721
      px      :     0.791411
      py      :     0.890818
      dz2     :     0.027307  d :     0.123861
      dxz     :     0.037930
      dyz     :     0.019515
      dx2y2   :     0.014966
      dxy     :     0.024143
      f0      :     0.002235  f :     0.009779
      f+1     :     0.001506
      f-1     :     0.001014
      f+2     :     0.001816
      f-2     :     0.001102
      f+3     :     0.000951
      f-3     :     0.001156

  5 C s       :     3.265427  s :     3.265427
      pz      :     0.959812  p :     2.868414
      px      :     0.935011
      py      :     0.973591
      dz2     :     0.015494  d :     0.080265
      dxz     :     0.027710
      dyz     :     0.007535
      dx2y2   :     0.009660
      dxy     :     0.019865
      f0      :     0.001283  f :     0.007241
      f+1     :     0.001186
      f-1     :     0.000634
      f+2     :     0.001397
      f-2     :     0.000629
      f+3     :     0.000642
      f-3     :     0.001470

  6 C s       :     3.246480  s :     3.246480
      pz      :     0.942268  p :     2.859003
      px      :     0.950689
      py      :     0.966046
      dz2     :     0.015401  d :     0.084626
      dxz     :     0.031987
      dyz     :     0.008534
      dx2y2   :     0.010359
      dxy     :     0.018346
      f0      :     0.001423  f :     0.007348
      f+1     :     0.001229
      f-1     :     0.000748
      f+2     :     0.001505
      f-2     :     0.000477
      f+3     :     0.000535
      f-3     :     0.001431

  7 C s       :     3.224211  s :     3.224211
      pz      :     0.913108  p :     2.642057
      px      :     0.790359
      py      :     0.938590
      dz2     :     0.028199  d :     0.123172
      dxz     :     0.035534
      dyz     :     0.021311
      dx2y2   :     0.017512
      dxy     :     0.020616
      f0      :     0.002105  f :     0.009502
      f+1     :     0.001444
      f-1     :     0.000968
      f+2     :     0.001793
      f-2     :     0.001110
      f+3     :     0.001021
      f-3     :     0.001061

  8 C s       :     3.268377  s :     3.268377
      pz      :     0.937133  p :     2.858801
      px      :     0.938716
      py      :     0.982952
      dz2     :     0.015284  d :     0.082811
      dxz     :     0.027861
      dyz     :     0.007692
      dx2y2   :     0.010650
      dxy     :     0.021325
      f0      :     0.001256  f :     0.007196
      f+1     :     0.001175
      f-1     :     0.000656
      f+2     :     0.001382
      f-2     :     0.000660
      f+3     :     0.000653
      f-3     :     0.001414

  9 C s       :     3.230449  s :     3.230449
      pz      :     0.964388  p :     2.863402
      px      :     0.939963
      py      :     0.959051
      dz2     :     0.014396  d :     0.083202
      dxz     :     0.031319
      dyz     :     0.008971
      dx2y2   :     0.010965
      dxy     :     0.017551
      f0      :     0.001398  f :     0.007294
      f+1     :     0.001195
      f-1     :     0.000752
      f+2     :     0.001507
      f-2     :     0.000470
      f+3     :     0.000554
      f-3     :     0.001418

 10 C s       :     3.092828  s :     3.092828
      pz      :     0.959855  p :     2.739837
      px      :     0.866694
      py      :     0.913288
      dz2     :     0.013588  d :     0.116857
      dxz     :     0.020856
      dyz     :     0.025162
      dx2y2   :     0.022846
      dxy     :     0.034406
      f0      :     0.000821  f :     0.007661
      f+1     :     0.000800
      f-1     :     0.000893
      f+2     :     0.001435
      f-2     :     0.000639
      f+3     :     0.001404
      f-3     :     0.001669

 11 C s       :     3.307830  s :     3.307830
      pz      :     1.058923  p :     3.030066
      px      :     1.063971
      py      :     0.907171
      dz2     :     0.007375  d :     0.049912
      dxz     :     0.002445
      dyz     :     0.016668
      dx2y2   :     0.012294
      dxy     :     0.011130
      f0      :     0.000418  f :     0.003735
      f+1     :     0.000467
      f-1     :     0.000677
      f+2     :     0.000446
      f-2     :     0.000140
      f+3     :     0.000973
      f-3     :     0.000613

 12 C s       :     3.096709  s :     3.096709
      pz      :     0.789754  p :     2.339572
      px      :     0.770719
      py      :     0.779099
      dz2     :     0.031151  d :     0.241540
      dxz     :     0.062646
      dyz     :     0.019749
      dx2y2   :     0.054915
      dxy     :     0.073079
      f0      :     0.001994  f :     0.023841
      f+1     :     0.003020
      f-1     :     0.002148
      f+2     :     0.004229
      f-2     :     0.002378
      f+3     :     0.003413
      f-3     :     0.006658

 13 O s       :     3.747452  s :     3.747452
      pz      :     1.686231  p :     4.592072
      px      :     1.332428
      py      :     1.573413
      dz2     :     0.004418  d :     0.028271
      dxz     :     0.004939
      dyz     :     0.005539
      dx2y2   :     0.009301
      dxy     :     0.004074
      f0      :     0.000215  f :     0.001769
      f+1     :     0.000170
      f-1     :     0.000183
      f+2     :     0.000242
      f-2     :     0.000245
      f+3     :     0.000476
      f-3     :     0.000237

 14 O s       :     3.800188  s :     3.800188
      pz      :     1.556064  p :     4.567688
      px      :     1.344326
      py      :     1.667297
      dz2     :     0.003185  d :     0.028771
      dxz     :     0.008914
      dyz     :     0.000553
      dx2y2   :     0.007886
      dxy     :     0.008232
      f0      :     0.000179  f :     0.001788
      f+1     :     0.000284
      f-1     :     0.000024
      f+2     :     0.000343
      f-2     :     0.000071
      f+3     :     0.000379
      f-3     :     0.000508

 15 H s       :     0.860449  s :     0.860449
      pz      :     0.004624  p :     0.021264
      px      :     0.005245
      py      :     0.011395

 16 H s       :     0.870980  s :     0.870980
      pz      :     0.011133  p :     0.021128
      px      :     0.005334
      py      :     0.004661

 17 H s       :     0.855035  s :     0.855035
      pz      :     0.004462  p :     0.021655
      px      :     0.012547
      py      :     0.004646

 18 H s       :     0.901912  s :     0.901912
      pz      :     0.011273  p :     0.022023
      px      :     0.005745
      py      :     0.005005

 19 H s       :     0.868969  s :     0.868969
      pz      :     0.009665  p :     0.021090
      px      :     0.006279
      py      :     0.005146

 20 H s       :     0.861347  s :     0.861347
      pz      :     0.004709  p :     0.021292
      px      :     0.005578
      py      :     0.011005

 21 H s       :     0.864092  s :     0.864092
      pz      :     0.008880  p :     0.021218
      px      :     0.005208
      py      :     0.007129

 22 H s       :     0.864312  s :     0.864312
      pz      :     0.010273  p :     0.021575
      px      :     0.005993
      py      :     0.005310

 23 H s       :     0.868577  s :     0.868577
      pz      :     0.008234  p :     0.021714
      px      :     0.005144
      py      :     0.008336

 24 H s       :     0.838967  s :     0.838967
      pz      :     0.011740  p :     0.022237
      px      :     0.005203
      py      :     0.005294

 25 H s       :     0.839223  s :     0.839223
      pz      :     0.010329  p :     0.022118
      px      :     0.006741
      py      :     0.005048

 26 H s       :     0.831519  s :     0.831519
      pz      :     0.011690  p :     0.022157
      px      :     0.005090
      py      :     0.005378

 27 H s       :     0.841766  s :     0.841766
      pz      :     0.010163  p :     0.022148
      px      :     0.006872
      py      :     0.005113

 28 H s       :     0.854262  s :     0.854262
      pz      :     0.012429  p :     0.022764
      px      :     0.005606
      py      :     0.004729

 29 H s       :     0.848251  s :     0.848251
      pz      :     0.011153  p :     0.021389
      px      :     0.005242
      py      :     0.004995

 30 H s       :     0.846276  s :     0.846276
      pz      :     0.007841  p :     0.021317
      px      :     0.005425
      py      :     0.008052

 31 H s       :     0.850804  s :     0.850804
      pz      :     0.004383  p :     0.021660
      px      :     0.012801
      py      :     0.004476

 32 H s       :     0.578605  s :     0.578605
      pz      :     0.012854  p :     0.046042
      px      :     0.021798
      py      :     0.011390



                     *******************************
                     * LOEWDIN POPULATION ANALYSIS *
                     *******************************

----------------------
LOEWDIN ATOMIC CHARGES
----------------------
   0 C :   -0.285975
   1 C :   -0.297420
   2 C :   -0.288344
   3 C :   -0.190622
   4 C :   -0.138652
   5 C :   -0.108866
   6 C :   -0.110579
   7 C :   -0.144553
   8 C :   -0.116415
   9 C :   -0.114303
  10 C :   -0.205062
  11 C :   -0.261745
  12 C :   -0.439973
  13 O :    0.107781
  14 O :    0.037647
  15 H :    0.120686
  16 H :    0.120638
  17 H :    0.120374
  18 H :    0.149186
  19 H :    0.119998
  20 H :    0.120627
  21 H :    0.119410
  22 H :    0.146813
  23 H :    0.147988
  24 H :    0.153731
  25 H :    0.153962
  26 H :    0.155766
  27 H :    0.152602
  28 H :    0.184248
  29 H :    0.127488
  30 H :    0.128517
  31 H :    0.124880
  32 H :    0.210166

-------------------------------
LOEWDIN REDUCED ORBITAL CHARGES
-------------------------------
  0 C s       :     2.831843  s :     2.831843
      pz      :     1.055542  p :     3.164888
      px      :     1.063335
      py      :     1.046011
      dz2     :     0.081781  d :     0.264161
      dxz     :     0.036705
      dyz     :     0.040407
      dx2y2   :     0.073657
      dxy     :     0.031610
      f0      :     0.002948  f :     0.025084
      f+1     :     0.004201
      f-1     :     0.004475
      f+2     :     0.003220
      f-2     :     0.004452
      f+3     :     0.004119
      f-3     :     0.001670

  1 C s       :     2.739713  s :     2.739713
      pz      :     0.996362  p :     2.982012
      px      :     0.998771
      py      :     0.986879
      dz2     :     0.097090  d :     0.522518
      dxz     :     0.094633
      dyz     :     0.099320
      dx2y2   :     0.126105
      dxy     :     0.105370
      f0      :     0.006072  f :     0.053177
      f+1     :     0.005899
      f-1     :     0.007087
      f+2     :     0.008569
      f-2     :     0.006548
      f+3     :     0.007525
      f-3     :     0.011477

  2 C s       :     2.833645  s :     2.833645
      pz      :     1.067000  p :     3.164045
      px      :     1.030586
      py      :     1.066459
      dz2     :     0.031761  d :     0.265509
      dxz     :     0.076750
      dyz     :     0.035402
      dx2y2   :     0.052232
      dxy     :     0.069364
      f0      :     0.002388  f :     0.025145
      f+1     :     0.004002
      f-1     :     0.002625
      f+2     :     0.003889
      f-2     :     0.002394
      f+3     :     0.004201
      f-3     :     0.005647

  3 C s       :     2.768618  s :     2.768618
      pz      :     1.022776  p :     3.007668
      px      :     0.981415
      py      :     1.003478
      dz2     :     0.045169  d :     0.376986
      dxz     :     0.070544
      dyz     :     0.081488
      dx2y2   :     0.090419
      dxy     :     0.089367
      f0      :     0.003549  f :     0.037350
      f+1     :     0.004759
      f-1     :     0.004236
      f+2     :     0.005540
      f-2     :     0.004427
      f+3     :     0.006328
      f-3     :     0.008511

  4 C s       :     2.714938  s :     2.714938
      pz      :     1.033698  p :     2.852115
      px      :     0.983639
      py      :     0.834778
      dz2     :     0.133186  d :     0.514991
      dxz     :     0.153910
      dyz     :     0.073599
      dx2y2   :     0.077884
      dxy     :     0.076411
      f0      :     0.013069  f :     0.056608
      f+1     :     0.009528
      f-1     :     0.005749
      f+2     :     0.010875
      f-2     :     0.007235
      f+3     :     0.004684
      f-3     :     0.005468

  5 C s       :     2.761675  s :     2.761675
      pz      :     0.990696  p :     2.929125
      px      :     1.041134
      py      :     0.897295
      dz2     :     0.088162  d :     0.376198
      dxz     :     0.129424
      dyz     :     0.028521
      dx2y2   :     0.061910
      dxy     :     0.068182
      f0      :     0.008199  f :     0.041868
      f+1     :     0.007442
      f-1     :     0.003576
      f+2     :     0.008127
      f-2     :     0.004077
      f+3     :     0.005158
      f-3     :     0.005288

  6 C s       :     2.764176  s :     2.764176
      pz      :     0.992433  p :     2.922787
      px      :     1.036956
      py      :     0.893398
      dz2     :     0.078571  d :     0.381777
      dxz     :     0.147644
      dyz     :     0.036050
      dx2y2   :     0.054627
      dxy     :     0.064885
      f0      :     0.009063  f :     0.041839
      f+1     :     0.006977
      f-1     :     0.004871
      f+2     :     0.007783
      f-2     :     0.002912
      f+3     :     0.004594
      f-3     :     0.005640

  7 C s       :     2.712975  s :     2.712975
      pz      :     1.038859  p :     2.870255
      px      :     0.958738
      py      :     0.872657
      dz2     :     0.133370  d :     0.506119
      dxz     :     0.145888
      dyz     :     0.075928
      dx2y2   :     0.079167
      dxy     :     0.071767
      f0      :     0.012251  f :     0.055204
      f+1     :     0.009275
      f-1     :     0.005576
      f+2     :     0.010572
      f-2     :     0.007382
      f+3     :     0.004907
      f-3     :     0.005241

  8 C s       :     2.763098  s :     2.763098
      pz      :     0.989272  p :     2.930334
      px      :     1.044479
      py      :     0.896583
      dz2     :     0.086343  d :     0.381199
      dxz     :     0.129454
      dyz     :     0.030551
      dx2y2   :     0.061021
      dxy     :     0.073830
      f0      :     0.008009  f :     0.041784
      f+1     :     0.007375
      f-1     :     0.003701
      f+2     :     0.007919
      f-2     :     0.004325
      f+3     :     0.005219
      f-3     :     0.005235

  9 C s       :     2.763517  s :     2.763517
      pz      :     0.996172  p :     2.930517
      px      :     1.033323
      py      :     0.901023
      dz2     :     0.078915  d :     0.378450
      dxz     :     0.147842
      dyz     :     0.034278
      dx2y2   :     0.054956
      dxy     :     0.062459
      f0      :     0.009186  f :     0.041818
      f+1     :     0.007011
      f-1     :     0.004775
      f+2     :     0.007777
      f-2     :     0.002839
      f+3     :     0.004601
      f-3     :     0.005629

 10 C s       :     2.730897  s :     2.730897
      pz      :     0.985061  p :     2.950535
      px      :     0.967618
      py      :     0.997856
      dz2     :     0.073158  d :     0.473628
      dxz     :     0.085880
      dyz     :     0.088928
      dx2y2   :     0.111660
[...]
  9 C s       :     2.759842  s :     2.759842
      pz      :     0.999193  p :     2.928866
      px      :     1.034016
      py      :     0.895657
      dz2     :     0.083048  d :     0.382919
      dxz     :     0.154190
      dyz     :     0.033151
      dx2y2   :     0.053119
      dxy     :     0.059412
      f0      :     0.009715  f :     0.042481
      f+1     :     0.007564
      f-1     :     0.004632
      f+2     :     0.007944
      f-2     :     0.002544
      f+3     :     0.004658
      f-3     :     0.005424

 10 C s       :     2.730176  s :     2.730176
      pz      :     0.983216  p :     2.952881
      px      :     0.969818
      py      :     0.999846
      dz2     :     0.072397  d :     0.477044
      dxz     :     0.080215
      dyz     :     0.103750
      dx2y2   :     0.110361
      dxy     :     0.110321
      f0      :     0.005336  f :     0.049761
      f+1     :     0.006239
      f-1     :     0.006289
      f+2     :     0.007715
      f-2     :     0.006829
      f+3     :     0.007510
      f-3     :     0.009843

 11 C s       :     2.828673  s :     2.828673
      pz      :     1.074335  p :     3.152951
      px      :     1.063971
      py      :     1.014646
      dz2     :     0.042787  d :     0.253965
      dxz     :     0.018430
      dyz     :     0.076347
      dx2y2   :     0.071578
      dxy     :     0.044823
      f0      :     0.002097  f :     0.024988
      f+1     :     0.003202
      f-1     :     0.003979
      f+2     :     0.002432
      f-2     :     0.003964
      f+3     :     0.005623
      f-3     :     0.003692

 12 C s       :     2.769855  s :     2.769855
      pz      :     0.957116  p :     2.623182
      px      :     0.769075
      py      :     0.896991
      dz2     :     0.215916  d :     0.921663
      dxz     :     0.131470
      dyz     :     0.267075
      dx2y2   :     0.153086
      dxy     :     0.154117
      f0      :     0.028508  f :     0.152305
      f+1     :     0.017657
      f-1     :     0.032866
      f+2     :     0.021353
      f-2     :     0.016615
      f+3     :     0.018913
      f-3     :     0.016392

 13 O s       :     3.329993  s :     3.329993
      pz      :     1.427241  p :     4.493855
      px      :     1.594183
      py      :     1.472431
      dz2     :     0.016913  d :     0.068464
      dxz     :     0.008853
      dyz     :     0.013428
      dx2y2   :     0.019299
      dxy     :     0.009971
      f0      :     0.000622  f :     0.004792
      f+1     :     0.000786
      f-1     :     0.000645
      f+2     :     0.000919
      f-2     :     0.000204
      f+3     :     0.000701
      f-3     :     0.000915

 14 O s       :     3.397638  s :     3.397638
      pz      :     1.472853  p :     4.464647
      px      :     1.368564
      py      :     1.623229
      dz2     :     0.021197  d :     0.064880
      dxz     :     0.018597
      dyz     :     0.015877
      dx2y2   :     0.004440
      dxy     :     0.004768
      f0      :     0.001274  f :     0.006147
      f+1     :     0.001606
      f-1     :     0.001251
      f+2     :     0.000803
      f-2     :     0.000965
      f+3     :     0.000132
      f-3     :     0.000116

 15 H s       :     0.818996  s :     0.818996
      pz      :     0.013495  p :     0.060683
      px      :     0.015758
      py      :     0.031430

 16 H s       :     0.818931  s :     0.818931
      pz      :     0.026359  p :     0.060505
      px      :     0.018141
      py      :     0.016005

 17 H s       :     0.818399  s :     0.818399
      pz      :     0.013939  p :     0.061589
      px      :     0.034317
      py      :     0.013334

 18 H s       :     0.794782  s :     0.794782
      pz      :     0.024019  p :     0.056679
      px      :     0.016951
      py      :     0.015709

 19 H s       :     0.819189  s :     0.819189
      pz      :     0.025314  p :     0.060569
      px      :     0.018365
      py      :     0.016890

 20 H s       :     0.819175  s :     0.819175
      pz      :     0.013678  p :     0.060699
      px      :     0.015207
      py      :     0.031814

 21 H s       :     0.819968  s :     0.819968
      pz      :     0.027923  p :     0.060645
      px      :     0.013253
      py      :     0.019468

 22 H s       :     0.795981  s :     0.795981
      pz      :     0.026427  p :     0.058145
      px      :     0.015532
      py      :     0.016187

 23 H s       :     0.793374  s :     0.793374
      pz      :     0.026271  p :     0.058491
      px      :     0.013604
      py      :     0.018617

 24 H s       :     0.788250  s :     0.788250
      pz      :     0.030262  p :     0.059043
      px      :     0.014418
      py      :     0.014363

 25 H s       :     0.787392  s :     0.787392
      pz      :     0.026599  p :     0.059187
      px      :     0.018738
      py      :     0.013850

 26 H s       :     0.785789  s :     0.785789
      pz      :     0.030554  p :     0.059513
      px      :     0.014479
      py      :     0.014480

 27 H s       :     0.789078  s :     0.789078
      pz      :     0.026456  p :     0.059092
      px      :     0.018700
      py      :     0.013937

 28 H s       :     0.763473  s :     0.763473
      pz      :     0.028901  p :     0.057718
      px      :     0.015116
      py      :     0.013701

 29 H s       :     0.812721  s :     0.812721
      pz      :     0.030864  p :     0.061632
      px      :     0.016323
      py      :     0.014445

 30 H s       :     0.810928  s :     0.810928
      pz      :     0.025001  p :     0.061138
      px      :     0.015685
      py      :     0.020452

 31 H s       :     0.812797  s :     0.812797
      pz      :     0.013385  p :     0.061264
      px      :     0.035507
      py      :     0.012371

 32 H s       :     0.635961  s :     0.635961
      pz      :     0.075314  p :     0.149380
      px      :     0.047424
      py      :     0.026642



                      *****************************
                      * MAYER POPULATION ANALYSIS *
                      *****************************

  NA   - Mulliken gross atomic population
  ZA   - Total nuclear charge
  QA   - Mulliken gross atomic charge
  VA   - Mayer's total valence
  BVA  - Mayer's bonded valence
  FA   - Mayer's free valence

  ATOM       NA         ZA         QA         VA         BVA        FA
  0 C      6.3844     6.0000    -0.3844     3.8748     3.8748     0.0000
  1 C      5.9925     6.0000     0.0075     3.8021     3.8021    -0.0000
  2 C      6.3678     6.0000    -0.3678     3.8542     3.8542     0.0000
  3 C      6.2082     6.0000    -0.2082     3.7777     3.7777    -0.0000
  4 C      5.8312     6.0000     0.1688     3.6198     3.6198    -0.0000
  5 C      6.2144     6.0000    -0.2144     3.8842     3.8842    -0.0000
  6 C      6.1953     6.0000    -0.1953     3.9020     3.9020    -0.0000
  7 C      5.9277     6.0000     0.0723     3.6773     3.6773    -0.0000
  8 C      6.1944     6.0000    -0.1944     3.8684     3.8684    -0.0000
  9 C      6.2255     6.0000    -0.2255     3.9110     3.9110    -0.0000
 10 C      6.0452     6.0000    -0.0452     3.6571     3.6571     0.0000
 11 C      6.3849     6.0000    -0.3849     3.9039     3.9039     0.0000
 12 C      5.6951     6.0000     0.3049     4.3302     4.3302     0.0000
 13 O      8.3775     8.0000    -0.3775     2.0869     2.0869     0.0000
 14 O      8.3707     8.0000    -0.3707     2.1214     2.1214    -0.0000
 15 H      0.8814     1.0000     0.1186     0.9688     0.9688     0.0000
 16 H      0.8937     1.0000     0.1063     0.9761     0.9761     0.0000
 17 H      0.8775     1.0000     0.1225     0.9679     0.9679     0.0000
 18 H      0.9266     1.0000     0.0734     0.9649     0.9649    -0.0000
 19 H      0.8913     1.0000     0.1087     0.9751     0.9751     0.0000
 20 H      0.8823     1.0000     0.1177     0.9697     0.9697    -0.0000
 21 H      0.8835     1.0000     0.1165     0.9704     0.9704     0.0000
 22 H      0.8874     1.0000     0.1126     0.9777     0.9777    -0.0000
 23 H      0.8895     1.0000     0.1105     0.9686     0.9686     0.0000
 24 H      0.8650     1.0000     0.1350     0.9715     0.9715    -0.0000
 25 H      0.8656     1.0000     0.1344     0.9732     0.9732    -0.0000
 26 H      0.8601     1.0000     0.1399     0.9786     0.9786    -0.0000
 27 H      0.8682     1.0000     0.1318     0.9740     0.9740    -0.0000
 28 H      0.8655     1.0000     0.1345     0.9679     0.9679     0.0000
 29 H      0.8747     1.0000     0.1253     0.9767     0.9767     0.0000
 30 H      0.8710     1.0000     0.1290     0.9697     0.9697    -0.0000
 31 H      0.8719     1.0000     0.1281     0.9708     0.9708    -0.0000
 32 H      0.6301     1.0000     0.3699     0.8804     0.8804     0.0000

  Mayer bond orders larger than 0.100000
B(  0-C ,  1-C ) :   0.9679 B(  0-C , 15-H ) :   0.9778 B(  0-C , 16-H ) :   0.9695 
B(  0-C , 17-H ) :   0.9735 B(  1-C ,  2-C ) :   0.9451 B(  1-C ,  3-C ) :   0.9520 
B(  1-C , 18-H ) :   0.9626 B(  2-C , 19-H ) :   0.9714 B(  2-C , 20-H ) :   0.9778 
B(  2-C , 21-H ) :   0.9769 B(  3-C ,  4-C ) :   0.8998 B(  3-C , 22-H ) :   0.9777 
B(  3-C , 23-H ) :   0.9605 B(  4-C ,  5-C ) :   1.3308 B(  4-C ,  9-C ) :   1.3358 
B(  5-C ,  6-C ) :   1.4166 B(  5-C , 24-H ) :   0.9849 B(  6-C ,  7-C ) :   1.3412 
B(  6-C , 25-H ) :   0.9790 B(  7-C ,  8-C ) :   1.3343 B(  7-C , 10-C ) :   0.8960 
B(  8-C ,  9-C ) :   1.4178 B(  8-C , 26-H ) :   0.9747 B(  9-C , 27-H ) :   0.9844 
B( 10-C , 11-C ) :   0.9460 B( 10-C , 12-C ) :   0.9727 B( 10-C , 28-H ) :   0.9483 
B( 11-C , 29-H ) :   0.9687 B( 11-C , 30-H ) :   0.9704 B( 11-C , 31-H ) :   0.9721 
B( 12-C , 13-O ) :   1.2192 B( 12-C , 14-O ) :   2.0648 B( 13-O , 32-H ) :   0.8419 


-------
TIMINGS
-------

Total SCF time: 0 days 0 hours 2 min 8 sec 

Total time                  ....     128.812 sec
Sum of individual times     ....     128.739 sec  ( 99.9%)

SCF preparation             ....       0.328 sec  (  0.3%)
Fock matrix formation       ....     127.907 sec  ( 99.3%)
  Startup                   ....       0.017 sec  (  0.0% of F)
  Split-RI-J                ....       6.505 sec  (  5.1% of F)
  Chain of spheres X        ....     101.426 sec  ( 79.3% of F)
  XC integration            ....       9.789 sec  (  7.7% of F)
    Basis function eval.    ....       2.765 sec  ( 28.2% of XC)
    Density eval.           ....       3.187 sec  ( 32.6% of XC)
    XC-Functional eval.     ....       0.152 sec  (  1.6% of XC)
    XC-Potential eval.      ....       3.422 sec  ( 35.0% of XC)
  CPCM terms                ....      10.107 sec  (  7.9% of F)
Diagonalization             ....       0.000 sec  (  0.0%)
Density matrix formation    ....       0.038 sec  (  0.0%)
Total Energy calculation    ....       0.023 sec  (  0.0%)
Population analysis         ....       0.081 sec  (  0.1%)
Orbital Transformation      ....       0.055 sec  (  0.0%)
Orbital Orthonormalization  ....       0.000 sec  (  0.0%)
DIIS solution               ....       0.063 sec  (  0.0%)
SOSCF solution              ....       0.244 sec  (  0.2%)
Finished LeanSCF after 128.9 sec

Maximum memory used throughout the entire LEANSCF-calculation: 118.8 MB

-------------------------   --------------------
FINAL SINGLE POINT ENERGY      -656.561840376587
-------------------------   --------------------

                                *** OPTIMIZATION RUN DONE ***


------------------------------------------------------------------------------
                              ORCA PROPERTY CALCULATIONS
------------------------------------------------------------------------------

GBWName                                 ... Ibuprofen\Ibuprofen_B3LYP_def2-TZVP\Ibuprofen_B3LYP_def2-TZVP.orcainp.gbw
Number of atoms                         ...     33
Number of basis functions               ...    573
Max core memory                         ...   1024 MB

Electric properties:
Dipole moment                           ... YES
Quadrupole moment                       ...  NO
Static polarizability (Dipole/Dipole)   ...  NO
Static polarizability (Dipole/Quad.)    ...  NO
Static polarizability (Quad./Quad.)     ...  NO
Static polarizability (Velocity)        ...  NO

Atomic electric properties:
Dipole moment                           ...  NO
Quadrupole moment                       ...  NO
Static polarizability                   ...  NO

Choice of electric origin               ... Center of mass
Position of electric origin             ...    11.458894    -2.036184    -1.006675

General magnetic properties:
Magnetizability                         ...  NO

EPR properties:
g-Tensor (aka g-matrix)                 ...  NO
Zero-Field splitting spin-orbit         ...  NO
Zero-field splitting spin-spin          ...  NO
Hyperfine couplings                     ...  NO (   0 nuclei)
Quadrupole couplings                    ...  NO (   0 nuclei)
Contact density                         ...  NO (   0 nuclei)

NMR properties:
Chemical shifts                         ...  NO (   0 nuclei)
Spin-rotation constants                 ...  NO (   0 nuclei)
Spin-spin couplings                     ...  NO (   0 nuclei,    0 pairs)

Choice of magnetic origin               ... GIAO
Position of magnetic origin             ...     0.000000     0.000000     0.000000

Properties with geometric perturbations:
SCF Hessian                             ...  NO
IR spectrum                             ...  NO
VCD spectrum                            ...  NO
X-ray spectroscopy properties:
SCF XES/XAS/RIXS spectra                ...  NO


-------------
DIPOLE MOMENT
-------------

Method             : SCF
Type of density    : Electron Density
Multiplicity       :   1
Irrep              :   0
Energy             :  -656.5618403765874973 Eh
Relativity type    : 
Basis              : AO
                                X                 Y                 Z
Electronic contribution:     19.022384205      -1.246103430      -3.401162161
Nuclear contribution   :    -20.313786960       1.154086308       5.504811568
                        -----------------------------------------
Total Dipole Moment    :     -1.291402755      -0.092017122       2.103649406
                        -----------------------------------------
Magnitude (a.u.)       :      2.470127335
Magnitude (Debye)      :      6.278564721



--------------------
Rotational spectrum 
--------------------
 
Rotational constants in cm-1:             0.046465             0.008520             0.008077 
Rotational constants in MHz :          1392.989366           255.431121           242.130447 

Dipole components along the rotational axes: 
x,y,z [a.u.] :     1.643113    -1.190828     1.408417 
x,y,z [Debye]:     4.176461    -3.026845     3.579911 

 

Dipole moment calculation done in   0.0 sec 

Maximum memory used throughout the entire PROP-calculation: 62.3 MB

--------------------------------
SUGGESTED CITATIONS FOR THIS RUN
--------------------------------

Below you find a list of papers that are relevant to this ORCA run
We neither can nor want to force you to cite these papers, but we appreciate if you do
You receive ORCA, which is the product of decades of hard work by many enthusiastic individuals, for free
The only thing we kindly ask in return is that you cite our papers,
We deeply appreciate it, if you show your appreciation for ORCA by not just citing the generic ORCA reference.

Please note that relegating all ORCA citations to the supporting information does *not* help us.
SI sections are not indexed - citations you put there will not count into any citation statistics
But we need these citations in order to attract the funding resources that allow us to do what we are doing

Therefore, if you are a happy ORCA user, please consider citing a few of the papers listed below in the main body of your paper

In addition to the list printed below, the program has created the file Ibuprofen\Ibuprofen_B3LYP_def2-TZVP\Ibuprofen_B3LYP_def2-TZVP.orcainp.bibtex that contains the list in bibtex format
You can import this file easily into all common literature databanks and citation aid programs


List of essential papers. We consider these as the minimum necessary citations

  1. Neese,F.
     Software update: the ORCA program system, version 5.0
     WIRES Comput. Molec. Sci., 2022 12(1)e1606
     doi.org/10.1002/wcms.1606

List of papers to cite with high priority. The work reported in these papers was absolutely
necessary for this run to complete.
Our perspective: the developers of density functionals and basis sets usually get cited in chemistry papers
Good! But without the algorithms to do something with them, the functionals or basis sets would not do anything.
Hence, in our opinion, the algorithm design and method developments papers are equally worthy of getting cited

  1. Neese,F.
     An improvement of the resolution of the identity approximation for the formation of the Coulomb matrix
     J. Comp. Chem., 2003 24(14)1740-1747
     doi.org/10.1002/jcc.10318
  2. Neese,F.; Wennmohs,F.; Hansen,A.; Becker,U.
     Efficient, approximate and parallel Hartree-Fock and hybrid DFT calculations. A 'chain-of-spheres' algorithm for the Hartree-Fock exchange
     Chem. Phys., 2009 356(1-3)98-109
     doi.org/10.1016/j.chemphys.2008.10.036
  3. Garcia-Rates,M.; Neese,F.
     Effect of the Solute Cavity on the Solvation Energy and its Derivatives within the Framework of the Gaussian Charge Scheme
     J. Comput. Chem., 2020 41 922-939
     doi.org/10.1002/jcc.26139
  4. Helmich-Paris,B.; de Souza,B.; Neese,F.; Izsák,R.
     An improved chain of spheres for exchange algorithm
     J. Chem. Phys., 2021 155 104109
     doi.org/doi: 10.1063/5.0058766.
  5. Neese,F.
     The SHARK Integral Generation and Digestion System
     J. Comp. Chem., 2022  1-16
     doi.org/10.1002/jcc.26942

List of suggested additional citations. These are papers that are important in the 'surrounding' of 
of this run, or papers that preceded the highly important papers. If you like your results we are grateful for a citation.

  1. Izsak,R.; Neese,F.
     An overlap fitted chain of spheres exchange method
     J. Chem. Phys., 2011 135 144105
     doi.org/10.1063/1.3646921
  2. Izsak,R.; Hansen,A.; Neese,F.
     The resolution of identity and chain of spheres approximations for the LPNO-CCSD singles Fock term
     Molec. Phys., 2012 110 2413-2417
     doi.org/10.1080/00268976.2012.687466
  3. Neese,F.
     The ORCA program system
     WIRES Comput. Molec. Sci., 2012 2(1)73-78
     doi.org/10.1002/wcms.81
  4. Izsak,R.; Neese,F.; Klopper,W.
     Robust fitting techniques in the chain of spheres approximation to the Fock exchange: The role of the complementary space
     J. Chem. Phys., 2013 139 
     doi.org/10.1063/1.4819264
  5. Neese,F.
     Software update: the ORCA program system, version 4.0
     WIRES Comput. Molec. Sci., 2018 8(1)1-6
     doi.org/10.1002/wcms.1327
  6. Neese,F.; Wennmohs,F.; Becker,U.; Riplinger,C.
     The ORCA quantum chemistry program package
     J. Chem. Phys., 2020 152 Art. No. L224108
     doi.org/10.1063/5.0004608

List of optional additional citations

  1. Neese,F.
     Approximate second-order SCF convergence for spin unrestricted wavefunctions
     Chem. Phys. Lett., 2000 325(1-3)93-98
     doi.org/10.1016/s0009-2614(00)00662-x

Timings for individual modules:

Sum of individual times          ...     6553.832 sec (= 109.231 min)
Startup calculation              ...       71.373 sec (=   1.190 min)   1.1 %
SCF iterations                   ...     4185.924 sec (=  69.765 min)  63.9 %
Property calculations            ...        0.118 sec (=   0.002 min)   0.0 %
SCF Gradient evaluation          ...     2296.153 sec (=  38.269 min)  35.0 %
Geometry relaxation              ...        0.264 sec (=   0.004 min)   0.0 %
                             ****ORCA TERMINATED NORMALLY****
TOTAL RUN TIME: 0 days 1 hours 49 minutes 16 seconds 484 msec
