
                                 *****************
                                 * O   R   C   A *
                                 *****************

                                            #,                                       
                                            ###                                      
                                            ####                                     
                                            #####                                    
                                            ######                                   
                                           ########,                                 
                                     ,,################,,,,,                         
                               ,,#################################,,                 
                          ,,##########################################,,             
                       ,#########################################, ''#####,          
                    ,#############################################,,   '####,        
                  ,##################################################,,,,####,       
                ,###########''''           ''''###############################       
              ,#####''   ,,,,##########,,,,          '''####'''          '####       
            ,##' ,,,,###########################,,,                        '##       
           ' ,,###''''                  '''############,,,                           
         ,,##''                                '''############,,,,        ,,,,,,###''
      ,#''                                            '''#######################'''  
     '                                                          ''''####''''         
             ,#######,   #######,   ,#######,      ##                                
            ,#'     '#,  ##    ##  ,#'     '#,    #''#        ,####,   ,####,        
            ##       ##  ##   ,#'  ##            #'  '#       #'       #'  '#        
            ##       ##  #######   ##           ,######,      #####,   #    #        
            '#,     ,#'  ##    ##  '#,     ,#' ,#      #,     #,   #   #,  ,#        
             '#######'   ##     ##  '#######'  #'      '#     '####' # '####'        



                #########################################################
                #                        -***-                          #
                #          Department of theory and spectroscopy        #
                #                                                       #
                #                      Frank Neese                      #
                #                                                       #
                #     Directorship, Architecture, Infrastructure        #
                #                    SHARK, DRIVERS                     #
                #        Core code/Algorithms in most modules           #
                #                                                       #
                #        Max Planck Institute fuer Kohlenforschung      #
                #                Kaiser Wilhelm Platz 1                 #
                #                 D-45470 Muelheim/Ruhr                 #
                #                      Germany                          #
                #                                                       #
                #                  All rights reserved                  #
                #                        -***-                          #
                #########################################################


                         Program Version 6.0.0  -   RELEASE   -


 With contributions from (in alphabetic order):
   Daniel Aravena         : Magnetic Suceptibility
   Michael Atanasov       : Ab Initio Ligand Field Theory (pilot matlab implementation)
   Alexander A. Auer      : GIAO ZORA, VPT2 properties, NMR spectrum
   Ute Becker             : All parallelization in ORCA, NUMFREQ, NUMCALC
   Giovanni Bistoni       : ED, misc. LED, open-shell LED, HFLD
   Martin Brehm           : Molecular dynamics
   Dmytro Bykov           : pre 5.0 version of the SCF Hessian
   Marcos Casanova-Páez   : Triplet and SCS-CIS(D). UHF-(DLPNO)-IP/EA/STEOM-CCSD. UHF-CVS-IP/STEOM-CCSD
   Vijay G. Chilkuri      : MRCI spin determinant printing, contributions to CSF-ICE
   Pauline Colinet        : FMM embedding
   Dipayan Datta          : RHF DLPNO-CCSD density
   Achintya Kumar Dutta   : EOM-CC, STEOM-CC
   Nicolas Foglia         : Exact transition moments, OPA infrastructure, MCD improvements
   Dmitry Ganyushin       : Spin-Orbit,Spin-Spin,Magnetic field MRCI
   Miquel Garcia          : C-PCM and meta-GGA Hessian, CCSD/C-PCM, Gaussian charge scheme
   Tiago L. C. Gouveia    : GS-ROHF, GS-ROCIS
   Yang Guo               : DLPNO-NEVPT2, F12-NEVPT2, CIM, IAO-localization
   Andreas Hansen         : Spin unrestricted coupled pair/coupled cluster methods
   Ingolf Harden          : AUTO-CI MPn and infrastructure 
   Benjamin Helmich-Paris : MC-RPA, TRAH-(SCF,CASSCF), AVAS, COSX integrals, SCF dyn. polar.
   Lee Huntington         : MR-EOM, pCC
   Robert Izsak           : Overlap fitted RIJCOSX, COSX-SCS-MP3, EOM
   Riya Kayal             : Wick's Theorem for AUTO-CI, AUTO-CI UHF-CCSDT
   Emily Kempfer          : AUTO-CI, RHF CISDT and CCSDT
   Christian Kollmar      : KDIIS, OOCD, Brueckner-CCSD(T), CCSD density, CASPT2, CASPT2-K, improved NEVPT2
   Axel Koslowski         : Symmetry handling
   Simone Kossmann        : Meta GGA functionals, TD-DFT gradient, OOMP2, (MP2 Hessian; deprecated post 5.0)
   Lucas Lang             : DCDCAS
   Marvin Lechner         : AUTO-CI (C++ implementation), FIC-MRCC
   Spencer Leger          : CASSCF response
   Dagmar Lenk            : GEPOL surface, SMD, ORCA-2-JSON
   Dimitrios Liakos       : Extrapolation schemes; Compound Job, initial MDCI parallelization
   Dimitrios Manganas     : Further ROCIS development; embedding schemes. LFT, Crystal Embedding
   Dimitrios Pantazis     : SARC Basis sets
   Anastasios Papadopoulos: AUTO-CI, single reference methods and gradients
   Taras Petrenko         : pre 6.0 DFT Hessian and TD-DFT gradient, (ASA, deprecated), ECA, 1-Electron XAS/XES, NRVS
   Peter Pinski           : DLPNO-MP2, DLPNO-MP2 Gradient
   Christoph Reimann      : Effective Core Potentials
   Marius Retegan         : Local ZFS, SOC
   Christoph Riplinger    : Optimizer, TS searches, QM/MM, DLPNO-CCSD(T), (RO)-DLPNO pert. Triples
   Michael Roemelt        : Original ROCIS implementation
   Masaaki Saitow         : Open-shell DLPNO-CCSD energy and density
   Barbara Sandhoefer     : DKH picture change effects
   Kantharuban Sivalingam : CASSCF convergence/infrastructure, NEVPT2 and variants, FIC-MRCI
   Bernardo de Souza      : ESD, SOC TD-DFT
   Georgi Stoychev        : AutoAux, RI-MP2 NMR, DLPNO-MP2 response, X2C
   Van Anh Tran           : RI-MP2 g-tensors
   Willem Van den Heuvel  : Paramagnetic NMR
   Zikuan Wang            : NOTCH, Electric field optimization 
   Frank Wennmohs         : Technical directorship and infrastructure
   Hang Xu                : AUTO-CI-Response properties 


 We gratefully acknowledge several colleagues who have allowed us to
 interface, adapt or use parts of their codes:
   Stefan Grimme, W. Hujo, H. Kruse, P. Pracht,  : VdW corrections, initial TS optimization,
                  C. Bannwarth, S. Ehlert,         DFT functionals, gCP, sTDA/sTD-DF
                  L. Wittmann, M. Mueller
   Ed Valeev, F. Pavosevic, A. Kumar             : LibInt (2-el integral package), F12 methods
   Garnet Chan, S. Sharma, J. Yang, R. Olivares  : DMRG
   Ulf Ekstrom                                   : XCFun DFT Library
   Mihaly Kallay                                 : mrcc  (arbitrary order and MRCC methods)
   Frank Weinhold                                : gennbo (NPA and NBO analysis)
   Simon Mueller                                 : openCOSMO-RS
   Christopher J. Cramer and Donald G. Truhlar   : smd solvation model
   Lars Goerigk                                  : TD-DFT with DH, B97 family of functionals
   V. Asgeirsson, H. Jonsson                     : NEB implementation
   FAccTs GmbH                                   : IRC, NEB, NEB-TS, DLPNO-Multilevel, CI-OPT
                                                   MM, QMMM, 2- and 3-layer-ONIOM, Crystal-QMMM,
                                                   LR-CPCM, SF, NACMEs, symmetry and pop. for TD-DFT,
                                                   nearIR, NL-DFT gradient (VV10), updates on ESD,
                                                   ML-optimized integration grids, MBIS, APM,
                                                   GOAT, DOCKER, SOLVATOR, interface openCOSMO-RS
   S Lehtola, MJT Oliveira, MAL Marques          : LibXC Library
   Liviu Ungur et al                             : ANISO software


 Your calculation uses the libint2 library for the computation of 2-el integrals
 For citations please refer to: http://libint.valeyev.net

 Your ORCA version has been built with support for libXC version: 6.2.2
 For citations please refer to: https://libxc.gitlab.io

 This ORCA versions uses:
   CBLAS   interface :  Fast vector & matrix operations
   LAPACKE interface :  Fast linear algebra routines
   Shared memory     :  Shared parallel matrices


Warning: RI is on but no J-basis has been assigned. Assigning Def2/J (nothing to worry about!)
================================================================================

----- Orbital basis set information -----
Your calculation utilizes the basis: 6-311+G**
   H, Li - Ne  : R. Krishnan, J. S. Binkley, R. Seeger and J. A. Pople, J. Chem. Phys. 72, 650 (1980).
   Na - Ar     : A. D. McLean and G. S. Chandler J. Chem. Phys. 72, 5639, (1980).
   K  - Ca     : J.-P. Blaudeau, M. P. McGrath, L. A. Curtiss and L. Radom, J. Chem. Phys. 107, 5016 (1997).
   Ga - Kr     : L. A. Curtiss, M. P. McGrath, J.-P. Blandeau, N. E. Davis, R. C. Binning and L. Radom, J. Chem. Phys. 103, 6104 (1995).
   Pol./Diff.
   H, Li - Cl  : T. Clark, J. Chandrasekhar and P. v. R. Schleyer, J. Comp. Chem. 4, 294 (1983).
   H - Ne      : M. J. Frisch, J. A. Pople and J. S. Binkley, J. Chem. Phys. 80, 3265 (1984).

----- AuxJ basis set information -----
Your calculation utilizes the auxiliary basis: def2/J
   F. Weigend, Phys. Chem. Chem. Phys. 8, 1057 (2006).

================================================================================
                                        WARNINGS
                       Please study these warnings very carefully!
================================================================================


WARNING: Geometry Optimization
  ===> : Switching off AutoStart
         For restart on a previous wavefunction, please use MOREAD

================================================================================
                                       INPUT FILE
================================================================================
NAME = Triclosan\Triclosan_TPSS_6-311+G\Triclosan_TPSS_6-311+G.orcainp
|  1> # ORCA input file
|  2> # 
|  3> !TPSS 6-311+G** Opt CPCM(WATER)
|  4> * xyz 0 1
|  5>    C       -0.49838         1.45672         0.09896
|  6>    C        0.83636         1.86187         0.13987
|  7>    C        1.85850         0.90964         0.07692
|  8>    C        1.52705        -0.44553         0.10327
|  9>    C        0.19399        -0.85911         0.06588
| 10>    C       -0.81311         0.09845         0.04328
| 11>   Cl       -2.45804        -0.38995        -0.04430
| 12>    O        2.48623        -1.41804         0.15924
| 13>    O        3.19540         1.23915         0.00408
| 14>    C        3.55840         2.36555        -0.71342
| 15>    C        4.59924         3.16189        -0.21840
| 16>    C        4.97545         4.33057        -0.88996
| 17>    C        4.31222         4.69779        -2.05616
| 18>    C        3.30213         3.89395        -2.58058
| 19>    C        2.94419         2.71337        -1.92599
| 20>   Cl        4.74503         6.15332        -2.86475
| 21>   Cl        5.43890         2.74189         1.23085
| 22>    H       -1.28677         2.20447         0.09898
| 23>    H        1.06264         2.92223         0.19335
| 24>    H       -0.04081        -1.92109         0.05235
| 25>    H        3.32941        -0.97731         0.37369
| 26>    H        5.77651         4.95189        -0.49678
| 27>    H        2.78688         4.18033        -3.49530
| 28>    H        2.16802         2.08687        -2.36091
| 29> **                         ****END OF INPUT****
================================================================================

                       *****************************
                       * Geometry Optimization Run *
                       *****************************

Geometry optimization settings:
Update method            Update   .... BFGS
Choice of coordinates    CoordSys .... (2022) Redundant Internals
Initial Hessian          InHess   .... Almloef's Model
Max. no of cycles        MaxIter  .... 72

Convergence Tolerances:
Energy Change            TolE     ....  5.0000e-06 Eh
Max. Gradient            TolMAXG  ....  3.0000e-04 Eh/bohr
RMS Gradient             TolRMSG  ....  1.0000e-04 Eh/bohr
Max. Displacement        TolMAXD  ....  4.0000e-03 bohr
RMS Displacement         TolRMSD  ....  2.0000e-03 bohr
Strict Convergence                .... False

------------------------------------------------------------------------------
                        ORCA OPTIMIZATION COORDINATE SETUP
------------------------------------------------------------------------------

The optimization will be done in redundant internal coordinates (2022)
Making redundant internal coordinates   ...  (2022 redundants) done
Evaluating the initial hessian          ...  (Almloef) done
Evaluating the coordinates              ...  done
Calculating the B-matrix                .... done
Calculating the G-matrix                .... done
Diagonalizing the G-matrix              .... done
Small eigenvalue found = 5.189e-03
Small eigenvalue found = 1.845e-02
Small eigenvalue found = 2.339e-02
The first mode is                       ....   52
The number of degrees of freedom        ....   66

    -----------------------------------------------------------------
                    Redundant Internal Coordinates


    -----------------------------------------------------------------
         Definition                    Initial Value    Approx d2E/dq
    -----------------------------------------------------------------
      1. B(C   1,C   0)                  1.3955         0.612355   
      2. B(C   2,C   1)                  1.3984         0.605849   
      3. B(C   3,C   2)                  1.3954         0.612606   
      4. B(C   4,C   3)                  1.3962         0.610629   
      5. B(C   5,C   4)                  1.3898         0.625141   
      6. B(C   5,C   0)                  1.3954         0.612596   
      7. B(Cl  6,C   5)                  1.7181         0.419963   
      8. B(O   7,C   3)                  1.3671         0.608733   
      9. B(O   8,C   2)                  1.3788         0.583028   
     10. B(C   9,O   8)                  1.3840         0.572147   
     11. B(C  10,C   9)                  1.4009         0.600249   
     12. B(C  11,C  10)                  1.3994         0.603574   
     13. B(C  12,C  11)                  1.3910         0.622616   
     14. B(C  13,C  12)                  1.3934         0.617128   
     15. B(C  14,C   9)                  1.4031         0.595543   
     16. B(C  14,C  13)                  1.3966         0.609921   
     17. B(Cl 15,C  12)                  1.7204         0.416517   
     18. B(Cl 16,C  10)                  1.7268         0.406846   
     19. B(H  17,C   0)                  1.0866         0.364633   
     20. B(H  18,C   1)                  1.0856         0.366031   
     21. B(H  19,C   4)                  1.0877         0.363141   
     22. B(H  20,O   8)                  2.2511         0.004531   
     23. B(H  20,O   7)                  0.9753         0.491561   
     24. B(H  21,C  11)                  1.0873         0.363625   
     25. B(H  22,C  13)                  1.0882         0.362471   
     26. B(H  23,C  14)                  1.0882         0.362539   
     27. A(C   1,C   0,H  17)          119.6162         0.352915   
     28. A(C   1,C   0,C   5)          119.9682         0.432164   
     29. A(C   5,C   0,H  17)          120.4118         0.352938   
     30. A(C   0,C   1,H  18)          118.9740         0.353144   
     31. A(C   2,C   1,H  18)          120.9976         0.352506   
     32. A(C   0,C   1,C   2)          120.0073         0.431305   
     33. A(C   1,C   2,C   3)          119.1344         0.431337   
     34. A(C   1,C   2,O   8)          123.2546         0.424738   
     35. A(C   3,C   2,O   8)          117.6070         0.425582   
     36. A(C   2,C   3,C   4)          120.9279         0.431946   
     37. A(C   4,C   3,O   7)          117.4034         0.428636   
     38. A(C   2,C   3,O   7)          121.6678         0.428885   
     39. A(C   3,C   4,C   5)          119.2209         0.433522   
     40. A(C   5,C   4,H  19)          121.0675         0.353906   
     41. A(C   3,C   4,H  19)          119.7115         0.352502   
     42. A(C   0,C   5,Cl  6)          119.6487         0.422262   
     43. A(C   0,C   5,C   4)          120.4351         0.433773   
     44. A(C   4,C   5,Cl  6)          119.9152         0.423795   
     45. A(C   3,O   7,H  20)          107.1047         0.365416   
     46. A(C   2,O   8,C   9)          118.4377         0.417690   
     47. A(O   8,C   9,C  10)          118.3161         0.422608   
     48. A(C  10,C   9,C  14)          119.3218         0.428441   
     49. A(O   8,C   9,C  14)          122.3438         0.422014   
     50. A(C   9,C  10,C  11)          120.3239         0.429471   
     51. A(C  11,C  10,Cl 16)          118.3700         0.418768   
     52. A(C   9,C  10,Cl 16)          121.3041         0.418356   
     53. A(C  12,C  11,H  21)          120.2377         0.353744   
     54. A(C  10,C  11,H  21)          120.1142         0.351889   
     55. A(C  10,C  11,C  12)          119.6461         0.432302   
     56. A(C  13,C  12,Cl 15)          119.5757         0.422197   
     57. A(C  11,C  12,Cl 15)          119.8326         0.422865   
     58. A(C  11,C  12,C  13)          120.5911         0.434032   
     59. A(C  12,C  13,C  14)          119.8068         0.432427   
     60. A(C  14,C  13,H  22)          119.6764         0.352323   
     61. A(C  12,C  13,H  22)          120.5164         0.353024   
     62. A(C   9,C  14,C  13)          120.1619         0.429671   
     63. A(C  13,C  14,H  23)          118.8279         0.352334   
     64. A(C   9,C  14,H  23)          120.9938         0.350916   
     65. D(C   2,C   1,C   0,H  17)   -177.0031         0.025909   
     66. D(H  18,C   1,C   0,H  17)      1.3416         0.025909   
     67. D(C   2,C   1,C   0,C   5)      2.2818         0.025909   
     68. D(H  18,C   1,C   0,C   5)   -179.3735         0.025909   
     69. D(C   3,C   2,C   1,H  18)    175.5746         0.025331   
     70. D(O   8,C   2,C   1,H  18)     -3.6759         0.025331   
     71. D(O   8,C   2,C   1,C   0)    174.6347         0.025331   
     72. D(C   3,C   2,C   1,C   0)     -6.1148         0.025331   
     73. D(O   7,C   3,C   2,O   8)      4.9411         0.025932   
     74. D(O   7,C   3,C   2,C   1)   -174.3516         0.025932   
     75. D(C   4,C   3,C   2,O   8)   -174.7104         0.025932   
     76. D(C   4,C   3,C   2,C   1)      5.9969         0.025932   
     77. D(H  19,C   4,C   3,C   2)    177.8731         0.025755   
     78. D(C   5,C   4,C   3,O   7)    178.3616         0.025755   
     79. D(C   5,C   4,C   3,C   2)     -1.9726         0.025755   
     80. D(H  19,C   4,C   3,O   7)     -1.7928         0.025755   
     81. D(Cl  6,C   5,C   4,H  19)     -1.4413         0.027070   
     82. D(C   0,C   5,C   4,H  19)    178.1925         0.027070   
     83. D(C   0,C   5,C   4,C   3)     -1.9640         0.027070   
     84. D(Cl  6,C   5,C   0,H  17)      0.7193         0.025931   
     85. D(Cl  6,C   5,C   0,C   1)   -178.5598         0.025931   
     86. D(Cl  6,C   5,C   4,C   3)    178.4022         0.027070   
     87. D(C   4,C   5,C   0,H  17)   -178.9155         0.025931   
     88. D(C   4,C   5,C   0,C   1)      1.8053         0.025931   
     89. D(H  20,O   7,C   3,C   4)   -167.9419         0.027116   
     90. D(H  20,O   7,C   3,C   2)     12.3948         0.027116   
     91. D(C   9,O   8,C   2,C   3)    145.4603         0.027282   
     92. D(C   9,O   8,C   2,C   1)    -35.2785         0.027282   
     93. D(C  14,C   9,O   8,C   2)    -39.3694         0.026210   
     94. D(C  10,C   9,O   8,C   2)    142.2004         0.026210   
     95. D(C  11,C  10,C   9,O   8)   -178.1978         0.024839   
     96. D(Cl 16,C  10,C   9,C  14)   -177.1840         0.024839   
     97. D(Cl 16,C  10,C   9,O   8)      1.2949         0.024839   
     98. D(C  11,C  10,C   9,C  14)      3.3233         0.024839   
     99. D(H  21,C  11,C  10,Cl 16)     -0.1788         0.025130   
    100. D(H  21,C  11,C  10,C   9)    179.3286         0.025130   
    101. D(C  12,C  11,C  10,Cl 16)   -179.6682         0.025130   
    102. D(C  12,C  11,C  10,C   9)     -0.1608         0.025130   
    103. D(Cl 15,C  12,C  11,H  21)     -0.9707         0.026838   
    104. D(Cl 15,C  12,C  11,C  10)    178.5182         0.026838   
    105. D(C  13,C  12,C  11,H  21)    178.7584         0.026838   
    106. D(C  13,C  12,C  11,C  10)     -1.7528         0.026838   
    107. D(H  22,C  13,C  12,Cl 15)     -0.0147         0.026339   
    108. D(H  22,C  13,C  12,C  11)   -179.7444         0.026339   
    109. D(C  14,C  13,C  12,Cl 15)   -179.8112         0.026339   
    110. D(C  14,C  13,C  12,C  11)      0.4591         0.026339   
    111. D(H  23,C  14,C  13,H  22)      1.4971         0.025692   
    112. D(H  23,C  14,C  13,C  12)   -178.7046         0.025692   
    113. D(C   9,C  14,C  13,H  22)   -177.0456         0.025692   
    114. D(C   9,C  14,C  13,C  12)      2.7526         0.025692   
    115. D(H  23,C  14,C   9,C  10)    176.8704         0.024431   
    116. D(H  23,C  14,C   9,O   8)     -1.5445         0.024431   
    117. D(C  13,C  14,C   9,C  10)     -4.6189         0.024431   
    118. D(C  13,C  14,C   9,O   8)    176.9661         0.024431   
    -----------------------------------------------------------------

Number of atoms                         .... 24
Number of degrees of freedom            .... 118


         *************************************************************
         *                GEOMETRY OPTIMIZATION CYCLE   1            *
         *************************************************************
---------------------------------
CARTESIAN COORDINATES (ANGSTROEM)
---------------------------------
  C     -0.498380    1.456720    0.098960
  C      0.836360    1.861870    0.139870
  C      1.858500    0.909640    0.076920
  C      1.527050   -0.445530    0.103270
  C      0.193990   -0.859110    0.065880
  C     -0.813110    0.098450    0.043280
  Cl    -2.458040   -0.389950   -0.044300
  O      2.486230   -1.418040    0.159240
  O      3.195400    1.239150    0.004080
  C      3.558400    2.365550   -0.713420
  C      4.599240    3.161890   -0.218400
  C      4.975450    4.330570   -0.889960
  C      4.312220    4.697790   -2.056160
  C      3.302130    3.893950   -2.580580
  C      2.944190    2.713370   -1.925990
  Cl     4.745030    6.153320   -2.864750
  Cl     5.438900    2.741890    1.230850
  H     -1.286770    2.204470    0.098980
  H      1.062640    2.922230    0.193350
  H     -0.040810   -1.921090    0.052350
  H      3.329410   -0.977310    0.373690
  H      5.776510    4.951890   -0.496780
  H      2.786880    4.180330   -3.495300
  H      2.168020    2.086870   -2.360910

----------------------------
CARTESIAN COORDINATES (A.U.)
----------------------------
  NO LB      ZA    FRAG     MASS         X           Y           Z
   0 C     6.0000    0    12.011   -0.941802    2.752802    0.187007
   1 C     6.0000    0    12.011    1.580491    3.518424    0.264316
   2 C     6.0000    0    12.011    3.512056    1.718970    0.145358
   3 C     6.0000    0    12.011    2.885706   -0.841930    0.195152
   4 C     6.0000    0    12.011    0.366588   -1.623483    0.124495
   5 C     6.0000    0    12.011   -1.536555    0.186044    0.081787
   6 Cl   17.0000    0    35.453   -4.645022   -0.736899   -0.083715
   7 O     8.0000    0    15.999    4.698294   -2.679707    0.300920
   8 O     8.0000    0    15.999    6.038431    2.341654    0.007710
   9 C     6.0000    0    12.011    6.724401    4.470242   -1.348168
  10 C     6.0000    0    12.011    8.691304    5.975106   -0.412716
  11 C     6.0000    0    12.011    9.402238    8.183591   -1.681781
  12 C     6.0000    0    12.011    8.148915    8.877537   -3.885579
  13 C     6.0000    0    12.011    6.240121    7.358499   -4.876589
  14 C     6.0000    0    12.011    5.563713    5.127526   -3.639594
  15 Cl   17.0000    0    35.453    8.966807   11.628090   -5.413593
  16 Cl   17.0000    0    35.453   10.278031    5.181421    2.325969
  17 H     1.0000    0     1.008   -2.431643    4.165845    0.187045
  18 H     1.0000    0     1.008    2.008099    5.522214    0.365379
  19 H     1.0000    0     1.008   -0.077120   -3.630334    0.098927
  20 H     1.0000    0     1.008    6.291673   -1.846848    0.706172
  21 H     1.0000    0     1.008   10.916022    9.357716   -0.938778
  22 H     1.0000    0     1.008    5.266440    7.899679   -6.605160
  23 H     1.0000    0     1.008    4.096964    3.943613   -4.461473

--------------------------------
INTERNAL COORDINATES (ANGSTROEM)
--------------------------------
 C      0   0   0     0.000000000000     0.00000000     0.00000000
 C      1   0   0     1.395475194405     0.00000000     0.00000000
 C      2   1   0     1.398382942902   120.00730714     0.00000000
 C      3   2   1     1.395363448676   119.13439743   353.88521152
 C      4   3   2     1.396243314075   120.92787852     5.99690044
 C      5   4   3     1.389849748570   119.22087215   358.02744876
 Cl     6   5   4     1.718138388285   119.91522697   178.40217544
 O      4   3   2     1.367089833698   121.66780929   185.64837581
 O      3   2   1     1.378834332217   123.25460873   174.63471367
 C      9   3   2     1.383962503105   118.43773013   324.72150892
 C     10   9   3     1.400910454526   118.31610011   142.20041341
 C     11  10   9     1.399406924415   120.32394736   181.80216421
 C     12  11  10     1.390951832847   119.64607025   359.83916149
 C     13  12  11     1.393361722633   120.59113197   358.24719922
 C     14  13  12     1.396559432355   119.80682487     0.45907096
 Cl    13  12  11     1.720380732600   119.83263710   178.51818599
 Cl    11  10   9     1.726775746326   121.30414926     1.29488420
 H      1   2   3     1.086595074073   119.61615663   182.99686979
 H      2   1   3     1.085553351245   118.97395465   178.34468767
 H      5   4   3     1.087711184690   119.71147944   177.87310101
 H      8   4   3     0.975286751576   107.10469875    12.39482959
 H     12  11  10     1.087348232352   120.11423103   179.32864385
 H     14  13  12     1.088213556844   120.51644043   180.25560822
 H     15  14  13     1.088162453543   118.82789416   181.29536685

---------------------------
INTERNAL COORDINATES (A.U.)
---------------------------
 C      0   0   0     0.000000000000     0.00000000     0.00000000
 C      1   0   0     2.637065944106     0.00000000     0.00000000
 C      2   1   0     2.642560792432   120.00730714     0.00000000
 C      3   2   1     2.636854775281   119.13439743   353.88521152
 C      4   3   2     2.638517479921   120.92787852     5.99690044
 C      5   4   3     2.626435392097   119.22087215   358.02744876
 Cl     6   5   4     3.246811014036   119.91522697   178.40217544
 O      4   3   2     2.583425386157   121.66780929   185.64837581
 O      3   2   1     2.605619271938   123.25460873   174.63471367
 C      9   3   2     2.615310110484   118.43773013   324.72150892
 C     10   9   3     2.647337097201   118.31610011   142.20041341
 C     11  10   9     2.644495837057   120.32394736   181.80216421
 C     12  11  10     2.628518029556   119.64607025   359.83916149
 C     13  12  11     2.633072061266   120.59113197   358.24719922
 C     14  13  12     2.639114856896   119.80682487     0.45907096
 Cl    13  12  11     3.251048430688   119.83263710   178.51818599
 Cl    11  10   9     3.263133255254   121.30414926     1.29488420
 H      1   2   3     2.053367108466   119.61615663   182.99686979
 H      2   1   3     2.051398537614   118.97395465   178.34468767
 H      5   4   3     2.055476251867   119.71147944   177.87310101
 H      8   4   3     1.843024862521   107.10469875    12.39482959
 H     12  11  10     2.054790371350   120.11423103   179.32864385
 H     14  13  12     2.056425597656   120.51644043   180.25560822
 H     15  14  13     2.056329026411   118.82789416   181.29536685

---------------------
BASIS SET INFORMATION
---------------------
There are 4 groups of distinct atoms

 Group   1 Type C   : 12s6p1d contracted to 5s4p1d pattern {63111/3111/1}
 Group   2 Type Cl  : 14s11p1d contracted to 7s6p1d pattern {6311111/521111/1}
 Group   3 Type O   : 12s6p1d contracted to 5s4p1d pattern {63111/3111/1}
 Group   4 Type H   : 5s1p contracted to 3s1p pattern {311/1}

Atom   0C    basis set group =>   1
Atom   1C    basis set group =>   1
Atom   2C    basis set group =>   1
Atom   3C    basis set group =>   1
Atom   4C    basis set group =>   1
Atom   5C    basis set group =>   1
Atom   6Cl   basis set group =>   2
Atom   7O    basis set group =>   3
Atom   8O    basis set group =>   3
Atom   9C    basis set group =>   1
Atom  10C    basis set group =>   1
Atom  11C    basis set group =>   1
Atom  12C    basis set group =>   1
Atom  13C    basis set group =>   1
Atom  14C    basis set group =>   1
Atom  15Cl   basis set group =>   2
Atom  16Cl   basis set group =>   2
Atom  17H    basis set group =>   4
Atom  18H    basis set group =>   4
Atom  19H    basis set group =>   4
Atom  20H    basis set group =>   4
Atom  21H    basis set group =>   4
Atom  22H    basis set group =>   4
Atom  23H    basis set group =>   4
---------------------------------
AUXILIARY/J BASIS SET INFORMATION
---------------------------------
There are 4 groups of distinct atoms

 Group   1 Type C   : 12s5p4d2f1g contracted to 6s4p3d1f1g pattern {711111/2111/211/2/1}
 Group   2 Type Cl  : 14s5p5d2f1g contracted to 8s4p3d1f1g pattern {71111111/2111/311/2/1}
 Group   3 Type O   : 12s5p4d2f1g contracted to 6s4p3d1f1g pattern {711111/2111/211/2/1}
 Group   4 Type H   : 5s2p1d contracted to 3s1p1d pattern {311/2/1}

Atom   0C    basis set group =>   1
Atom   1C    basis set group =>   1
Atom   2C    basis set group =>   1
Atom   3C    basis set group =>   1
Atom   4C    basis set group =>   1
Atom   5C    basis set group =>   1
Atom   6Cl   basis set group =>   2
Atom   7O    basis set group =>   3
Atom   8O    basis set group =>   3
Atom   9C    basis set group =>   1
Atom  10C    basis set group =>   1
Atom  11C    basis set group =>   1
Atom  12C    basis set group =>   1
Atom  13C    basis set group =>   1
Atom  14C    basis set group =>   1
Atom  15Cl   basis set group =>   2
Atom  16Cl   basis set group =>   2
Atom  17H    basis set group =>   4
Atom  18H    basis set group =>   4
Atom  19H    basis set group =>   4
Atom  20H    basis set group =>   4
Atom  21H    basis set group =>   4
Atom  22H    basis set group =>   4
Atom  23H    basis set group =>   4
------------------------------------------------------------------------------
                             ORCA STARTUP CALCULATIONS
                           -- RI-GTO INTEGRALS CHOSEN --
------------------------------------------------------------------------------
------------------------------------------------------------------------------
                   ___                                                        
                  /   \      - P O W E R E D   B Y -                         
                 /     \                                                     
                 |  |  |   _    _      __       _____    __    __             
                 |  |  |  | |  | |    /  \     |  _  \  |  |  /  |          
                  \  \/   | |  | |   /    \    | | | |  |  | /  /          
                 / \  \   | |__| |  /  /\  \   | |_| |  |  |/  /          
                |  |  |   |  __  | /  /__\  \  |    /   |      \           
                |  |  |   | |  | | |   __   |  |    \   |  |\   \          
                \     /   | |  | | |  |  |  |  | |\  \  |  | \   \       
                 \___/    |_|  |_| |__|  |__|  |_| \__\ |__|  \__/        
                                                                              
                      - O R C A' S   B I G   F R I E N D -                    
                                      &                                       
                       - I N T E G R A L  F E E D E R -                       
                                                                              
 v1 FN, 2020, v2 2021, v3 2022-2024                                           
------------------------------------------------------------------------------


----------------------
SHARK INTEGRAL PACKAGE
----------------------

Number of atoms                             ...     24
Number of basis functions                   ...    440
Number of shells                            ...    210
Maximum angular momentum                    ...      2
Integral batch strategy                     ... SHARK/LIBINT Hybrid
RI-J (if used) integral strategy            ... SPLIT-RIJ (Revised 2003 algorithm where possible)
Printlevel                                  ...      1
Contraction scheme used                     ... SEGMENTED contraction
Prescreening option                         ... SCHWARTZ
   Thresh                                   ... 2.500e-11
   Tcut                                     ... 2.500e-12
   Tpresel                                  ... 2.500e-12 
Coulomb Range Separation                    ... NOT USED
Exchange Range Separation                   ... NOT USED
Multipole approximations                    ... NOT USED
Finite Nucleus Model                        ... NOT USED
CABS basis                                  ... NOT available
Auxiliary Coulomb fitting basis             ... AVAILABLE
   # of basis functions in Aux-J            ...    916
   # of shells in Aux-J                     ...    296
   Maximum angular momentum in Aux-J        ...      4
Auxiliary J/K fitting basis                 ... NOT available
Auxiliary Correlation fitting basis         ... NOT available
Auxiliary 'external' fitting basis          ... NOT available

Checking pre-screening integrals            ... done (  0.0 sec) Dimension = 210
Check shell pair data                       ... done (  0.0 sec)
Shell pair information
Shell pair cut-off parameter TPreSel        ...   2.5e-12
Total number of shell pairs                 ...     22155
Shell pairs after pre-screening             ...     17205
Total number of primitive shell pairs       ...     75093
Primitive shell pairs kept                  ...     39216
          la=0 lb=0:   4723 shell pairs
          la=1 lb=0:   7193 shell pairs
          la=1 lb=1:   2763 shell pairs
          la=2 lb=0:   1354 shell pairs
          la=2 lb=1:   1058 shell pairs
          la=2 lb=2:    114 shell pairs

Calculating one electron integrals          ... done (  0.0 sec)
Calculating RI/J V-Matrix + Cholesky decomp.... done (  0.0 sec)
Calculating Nuclear repulsion               ... done (  0.0 sec) ENN=   1433.084984797995 Eh

Diagonalization of the overlap matrix:
Smallest eigenvalue                        ... 8.833e-07
Time for diagonalization                   ...    0.010 sec
Threshold for overlap eigenvalues          ... 1.000e-07
Number of eigenvalues below threshold      ... 0

IMPORTANT:
Smallest eigenvalue of S below the DiffSThresh (1.000e-06) while
Thresh>1e-12 and/or TCut>1e-13! In order to avoid SCF convergence issues,
Thresh will be set to at least 1e-12 and TCut to at least 1e-13.
This can be turned off by adding %SCF DiffSThresh -1 END to the input.

Time for construction of square roots      ...    0.008 sec
Total time needed                          ...    0.019 sec

-------------------
DFT GRID GENERATION
-------------------

General Integration Accuracy     IntAcc      ... 4.388
Radial Grid Type                 RadialGrid  ... OptM3 with GC (2021)
Angular Grid (max. ang.)         AngularGrid ... 4 (Lebedev-302)
Angular grid pruning method      GridPruning ... 4 (adaptive)
Weight generation scheme         WeightScheme... mBecke (2022)
Basis function cutoff            BFCut       ... 1.0000e-11
Integration weight cutoff        WCut        ... 1.0000e-14
Partially contracted basis set               ... off
Rotationally invariant grid construction     ... off
Angular grids for H and He will be reduced by one unit
Diffuse basis detected: some atoms will have their outermost
                        angular grid increased by 1.

Total number of grid points                  ...   132665
Total number of batches                      ...     2086
Average number of points per batch           ...       63
Average number of grid points per atom       ...     5528
Initializing property integral containers    ... done (  0.0 sec)

SHARK setup successfully completed in   1.0 seconds

Maximum memory used throughout the entire STARTUP-calculation: 69.3 MB
-------------------------------------------------------------------------------
                                 ORCA GUESS
                   Start orbitals & Density for SCF / CASSCF
-------------------------------------------------------------------------------

------------
SCF SETTINGS
------------
Hamiltonian:
 Density Functional     Method          .... DFT(GTOs)
 Exchange Functional    Exchange        .... TPSS
 Correlation Functional Correlation     .... TPSS
 LDA part of GGA corr.  LDAOpt          .... PW91-LDA
 Gradients option       PostSCFGGA      .... off
   NL short-range parameter             ....  5.000000
 RI-approximation to the Coulomb term is turned on
   Number of AuxJ basis functions       .... 916


General Settings:
 Integral files         IntName         .... Triclosan\Triclosan_TPSS_6-311+G\Triclosan_TPSS_6-311+G.orcainp
 Hartree-Fock type      HFTyp           .... RHF
 Total Charge           Charge          ....    0
 Multiplicity           Mult            ....    1
 Number of Electrons    NEL             ....  146
 Basis Dimension        Dim             ....  440
 Nuclear Repulsion      ENuc            ....   1433.0849847980 Eh

Convergence Acceleration:
 AO-DIIS                CNVDIIS         .... on
   Start iteration      DIISMaxIt       ....    12
   Startup error        DIISStart       ....  0.200000
   # of expansion vecs  DIISMaxEq       ....     5
   Bias factor          DIISBfac        ....   1.050
   Max. coefficient     DIISMaxC        ....  10.000
 MO-DIIS                CNVKDIIS        .... off
 Trust-Rad. Augm. Hess. CNVTRAH         .... auto
   Auto Start mean grad. ratio tolernc. ....  1.125000
   Auto Start start iteration           ....    50
   Auto Start num. interpolation iter.  ....    10
   Max. Number of Micro iterations      ....    24
   Max. Number of Macro iterations      .... Maxiter - #DIIS iter
   Number of Davidson start vectors     ....     2
   Converg. threshold    (grad. norm)   ....   1.000e-05
   Grad. Scal. Fac. for Micro threshold ....   0.100
   Minimum threshold for Micro iter.    ....   1.000e-02
   NR start threshold (gradient norm)   ....   1.000e-04
   Initial trust radius                 ....   0.400
   Minimum AH scaling param. (alpha)    ....   1.000
   Maximum AH scaling param. (alpha)    .... 1000.000
   Quad. conv. algorithm                .... NR
   White noise on init. David. guess    .... on
   Maximum white noise                  ....   0.010
   Pseudo random numbers                .... off
   Inactive MOs                         .... canonical
   Orbital update algorithm             .... Taylor
   Preconditioner                       .... Diag
   Full preconditioner red. dimension   ....   250
 SOSCF                  CNVSOSCF        .... on
   Start iteration      SOSCFMaxIt      ....   150
   Startup grad/error   SOSCFStart      ....  0.003300
   Hessian update       SOSCFHessUp     .... L-BFGS
 Level Shifting         CNVShift        .... on
   Level shift para.    LevelShift      ....    0.2500
   Turn off err/grad.   ShiftErr        ....    0.0010
 Zerner damping         CNVZerner       .... off
 Static damping         CNVDamp         .... on
   Fraction old density DampFac         ....    0.7000
   Max. Damping (<1)    DampMax         ....    0.9800
   Min. Damping (>=0)   DampMin         ....    0.0000
   Turn off err/grad.   DampErr         ....    0.1000

SCF Procedure:
 Maximum # iterations   MaxIter         ....   125
 SCF integral mode      SCFMode         .... Direct
   Integral package                     .... SHARK and LIBINT hybrid scheme
 Reset frequency        DirectResetFreq ....    20
 Integral Threshold     Thresh          ....  1.000e-12 Eh
 Primitive CutOff       TCut            ....  1.000e-13 Eh

Convergence Tolerance:
 Convergence Check Mode ConvCheckMode   .... Total+1el-Energy
 Convergence forced     ConvForced      .... 0
 Energy Change          TolE            ....  1.000e-08 Eh
 1-El. energy change                    ....  1.000e-05 Eh
 Orbital Gradient       TolG            ....  1.000e-05
 Orbital Rotation angle TolX            ....  1.000e-05
 DIIS Error             TolErr          ....  5.000e-07

------------------------------
INITIAL GUESS: MODEL POTENTIAL
------------------------------
Loading Hartree-Fock densities                     ... done
Calculating cut-offs                               ... done
Initializing the effective Hamiltonian             ... done
Setting up the integral package (SHARK)            ... done
Starting the Coulomb interaction                   ... done (   0.4 sec)
Making the grid                                    ... done (   0.3 sec)
Mapping shells                                     ... done
Starting the XC term evaluation                    ... done (   0.7 sec)
  promolecular density results
     # of electrons  =    145.990789678
     EX              =   -161.966559798
     EC              =     -5.226454167
     EX+EC           =   -167.193013965
Transforming the Hamiltonian                       ... done (   0.0 sec)
Diagonalizing the Hamiltonian                      ... done (   0.0 sec)
Back transforming the eigenvectors                 ... done (   0.0 sec)
Now organizing SCF variables                       ... done
                      ------------------
                      INITIAL GUESS DONE (   1.4 sec)
                      ------------------
             **** ENERGY FILE WAS UPDATED (Triclosan\Triclosan_TPSS_6-311+G\Triclosan_TPSS_6-311+G.orcainp.en.tmp) ****
Finished Guess after   1.5 sec
Maximum memory used throughout the entire GUESS-calculation: 44.2 MB

-------------------------------------------------------------------------------------------
                                      ORCA LEAN-SCF
                              memory conserving SCF solver
-------------------------------------------------------------------------------------------

--------------------
CPCM SOLVATION MODEL
--------------------
CPCM parameters:
  Epsilon                                         ...      80.1510
  Refrac                                          ...       1.3328
  Rsolv                                           ...       1.3000
  Surface type                                    ... GAUSSIAN VDW
  Discretization scheme                           ... Constant charge density
    Threshold for H atoms                         ...       5.0000 (charges/Ang^2)
    Threshold for non-H atoms                     ...       5.0000 (charges/Ang^2)
  Epsilon function type                           ...         CPCM
Solvent:                                          ... WATER
Radii:
  Scheme                                          ... Element-dependent radii
  Radius for C  used is    3.8550 Bohr (=   2.0400 Ang.)
  Radius for Cl used is    3.9684 Bohr (=   2.1000 Ang.)
  Radius for O  used is    3.4469 Bohr (=   1.8240 Ang.)
  Radius for H  used is    2.4944 Bohr (=   1.3200 Ang.)
Calculating surface                               ...        done! (  0.0s)
Cavity surface points                             ...         2518
Cavity Volume                                     ...    1981.6541
Cavity Surface-area                               ...    1034.6095
Calculating surface distance matrix               ...        done! (  0.0s)
Performing Cholesky decomposition & store         ...        done! (  0.1s)
Overall time for CPCM initialization              ...                 0.1s

----------------------------------------D-I-I-S--------------------------------------------
Iteration    Energy (Eh)           Delta-E    RMSDP     MaxDP     DIISErr   Damp  Time(sec)
-------------------------------------------------------------------------------------------
               ***  Starting incremental Fock matrix formation  ***
    1    -1992.6485320541471538     0.00e+00  1.88e-02  1.79e+00  2.20e-01  0.700   7.2
    2    -1992.7652351197427834    -1.17e-01  1.48e-02  1.60e+00  8.16e-02  0.700   6.3
                               ***Turning on AO-DIIS***
    3    -1992.8083145086054628    -4.31e-02  8.84e-03  9.73e-01  3.04e-02  0.700   6.2
    4    -1992.8337740822128126    -2.55e-02  1.91e-02  1.82e+00  2.12e-02  0.000   6.0
    5    -1992.8904350327572956    -5.67e-02  3.35e-03  4.05e-01  8.88e-03  0.000   6.1
                              *** Initializing SOSCF ***
---------------------------------------S-O-S-C-F--------------------------------------
Iteration    Energy (Eh)           Delta-E    RMSDP     MaxDP     MaxGrad    Time(sec)
--------------------------------------------------------------------------------------
    6    -1992.8908810603722941    -4.46e-04  1.04e-03  1.41e-01  3.05e-03     5.7
               *** Restarting incremental Fock matrix formation ***
    7    -1992.8909436980054579    -6.26e-05  1.15e-03  1.62e-01  2.44e-04     7.0
    8    -1992.8909386464104045     5.05e-06  1.81e-04  1.35e-02  3.77e-04     5.2
    9    -1992.8909504675787048    -1.18e-05  2.46e-04  3.12e-02  1.03e-04     4.9
   10    -1992.8909499623639476     5.05e-07  6.19e-05  5.01e-03  1.25e-04     4.9
   11    -1992.8909508938029376    -9.31e-07  7.85e-05  9.71e-03  2.58e-05     4.7
   12    -1992.8909508496269609     4.42e-08  4.91e-05  3.44e-03  3.87e-05     4.6
   13    -1992.8909509395000441    -8.99e-08  6.32e-05  6.52e-03  4.66e-06     4.4
   14    -1992.8909509389657160     5.34e-10  2.94e-05  2.50e-03  6.79e-06     4.2
                 **** Energy Check signals convergence ****

               *****************************************************
               *                     SUCCESS                       *
               *           SCF CONVERGED AFTER  14 CYCLES          *
               *****************************************************

             **** ENERGY FILE WAS UPDATED (Triclosan\Triclosan_TPSS_6-311+G\Triclosan_TPSS_6-311+G.orcainp.en.tmp) ****

----------------
TOTAL SCF ENERGY
----------------

Total Energy       :      -1992.89095093896572 Eh          -54229.31974 eV

Components:
Nuclear Repulsion  :       1433.08498479799505 Eh           38996.22497 eV
Electronic Energy  :      -3425.96332891626844 Eh          -93225.20166 eV
One Electron Energy:      -5586.38125088515426 Eh         -152013.16204 eV
Two Electron Energy:       2160.41792196888582 Eh           58787.96038 eV
CPCM Dielectric    :         -0.01260682069231 Eh              -0.34305 eV

Virial components:
Potential Energy   :      -3980.77212476265231 Eh         -108322.31651 eV
Kinetic Energy     :       1987.88117382368682 Eh           54092.99677 eV
Virial Ratio       :          2.00252015924354

DFT components:
N(Alpha)           :       73.000045218469 electrons
N(Beta)            :       73.000045218469 electrons
N(Total)           :      146.000090436938 electrons
E(X)               :     -164.726902405661 Eh       
E(C)               :       -5.238958908221 Eh       
E(XC)              :     -169.965861313882 Eh       

CPCM Solvation Model Properties:
Surface-charge          :         -0.03055681293991
Corrected charge        :         -0.00000000000000
Outlying charge corr.   :          0.00005219621563 Eh               0.00142 eV
Free-energy (cav+disp)  :  This term is not implemented in the current solvation scheme

---------------
SCF CONVERGENCE
---------------

  Last Energy change         ...   -5.3433e-10  Tolerance :   1.0000e-08
  Last MAX-Density change    ...    2.4955e-03  Tolerance :   1.0000e-07
  Last RMS-Density change    ...    2.9438e-05  Tolerance :   5.0000e-09
  Last DIIS Error            ...    3.0500e-03  Tolerance :   5.0000e-07
  Last Orbital Gradient      ...    6.7912e-06  Tolerance :   1.0000e-05
  Last Orbital Rotation      ...    1.4484e-05  Tolerance :   1.0000e-05


----------------
ORBITAL ENERGIES
----------------

  NO   OCC          E(Eh)            E(eV) 
   0   2.0000    -101.031566     -2749.2087 
   1   2.0000    -101.027431     -2749.0962 
   2   2.0000    -101.024008     -2749.0030 
   3   2.0000     -18.948651      -515.6190 
   4   2.0000     -18.924100      -514.9509 
   5   2.0000     -10.077852      -274.2323 
   6   2.0000     -10.067261      -273.9441 
   7   2.0000     -10.064589      -273.8714 
   8   2.0000     -10.063316      -273.8368 
   9   2.0000     -10.060238      -273.7530 
  10   2.0000     -10.053560      -273.5713 
  11   2.0000     -10.018213      -272.6094 
  12   2.0000     -10.015130      -272.5255 
  13   2.0000     -10.012643      -272.4579 
  14   2.0000     -10.007322      -272.3131 
  15   2.0000     -10.004275      -272.2302 
  16   2.0000     -10.001586      -272.1570 
  17   2.0000      -9.268467      -252.2078 
  18   2.0000      -9.264664      -252.1043 
  19   2.0000      -9.261356      -252.0143 
  20   2.0000      -7.050892      -191.8645 
  21   2.0000      -7.046851      -191.7546 
  22   2.0000      -7.043435      -191.6616 
  23   2.0000      -7.039836      -191.5637 
  24   2.0000      -7.039154      -191.5451 
  25   2.0000      -7.036041      -191.4604 
  26   2.0000      -7.035508      -191.4459 
  27   2.0000      -7.032763      -191.3712 
  28   2.0000      -7.032250      -191.3573 
  29   2.0000      -1.042764       -28.3751 
  30   2.0000      -1.005265       -27.3547 
  31   2.0000      -0.859032       -23.3754 
  32   2.0000      -0.843382       -22.9496 
  33   2.0000      -0.830469       -22.5982 
  34   2.0000      -0.790234       -21.5034 
  35   2.0000      -0.779899       -21.2221 
  36   2.0000      -0.713324       -19.4105 
  37   2.0000      -0.709826       -19.3154 
  38   2.0000      -0.704352       -19.1664 
  39   2.0000      -0.670446       -18.2438 
  40   2.0000      -0.604908       -16.4604 
  41   2.0000      -0.591040       -16.0830 
  42   2.0000      -0.578100       -15.7309 
  43   2.0000      -0.558334       -15.1930 
  44   2.0000      -0.528207       -14.3732 
  45   2.0000      -0.499969       -13.6049 
  46   2.0000      -0.472117       -12.8469 
  47   2.0000      -0.469413       -12.7734 
  48   2.0000      -0.459291       -12.4979 
  49   2.0000      -0.440394       -11.9837 
  50   2.0000      -0.427942       -11.6449 
  51   2.0000      -0.415555       -11.3078 
  52   2.0000      -0.410521       -11.1708 
  53   2.0000      -0.404654       -11.0112 
  54   2.0000      -0.399720       -10.8769 
  55   2.0000      -0.384042       -10.4503 
  56   2.0000      -0.373333       -10.1589 
  57   2.0000      -0.368875       -10.0376 
  58   2.0000      -0.364610        -9.9215 
  59   2.0000      -0.355001        -9.6601 
  60   2.0000      -0.346699        -9.4341 
  61   2.0000      -0.337581        -9.1861 
  62   2.0000      -0.331611        -9.0236 
  63   2.0000      -0.325327        -8.8526 
  64   2.0000      -0.300597        -8.1796 
  65   2.0000      -0.295855        -8.0506 
  66   2.0000      -0.288318        -7.8455 
  67   2.0000      -0.287756        -7.8302 
  68   2.0000      -0.283220        -7.7068 
  69   2.0000      -0.244523        -6.6538 
  70   2.0000      -0.233883        -6.3643 
  71   2.0000      -0.222600        -6.0573 
  72   2.0000      -0.201115        -5.4726 
  73   0.0000      -0.066546        -1.8108 
  74   0.0000      -0.058706        -1.5975 
  75   0.0000      -0.044705        -1.2165 
  76   0.0000      -0.035179        -0.9573 
  77   0.0000      -0.026009        -0.7077 
  78   0.0000      -0.010070        -0.2740 
  79   0.0000      -0.005252        -0.1429 
  80   0.0000       0.004237         0.1153 
  81   0.0000       0.007413         0.2017 
  82   0.0000       0.011920         0.3244 
  83   0.0000       0.022466         0.6113 
*Only the first 10 virtual orbitals were printed.

                    ********************************
                    * MULLIKEN POPULATION ANALYSIS *
                    ********************************

-----------------------
MULLIKEN ATOMIC CHARGES
-----------------------
   0 C :   -0.688336
   1 C :    0.062474
   2 C :   -0.185940
   3 C :   -1.043645
   4 C :   -0.079545
   5 C :    0.894388
   6 Cl:    0.411724
   7 O :   -0.260394
   8 O :    0.043439
   9 C :   -1.955725
  10 C :    1.413475
  11 C :   -1.031023
  12 C :    1.158949
  13 C :   -0.577413
  14 C :   -0.448510
  15 Cl:    0.421225
  16 Cl:    0.377262
  17 H :    0.180909
  18 H :    0.200076
  19 H :    0.181632
  20 H :    0.312897
  21 H :    0.210207
  22 H :    0.190496
  23 H :    0.211377
Sum of atomic charges:   -0.0000000

--------------------------------
MULLIKEN REDUCED ORBITAL CHARGES
--------------------------------
  0 C s       :     3.658809  s :     3.658809
      pz      :     1.038549  p :     2.972092
      px      :     1.134056
      py      :     0.799488
      dz2     :     0.003692  d :     0.057435
      dxz     :     0.007533
      dyz     :     0.008021
      dx2y2   :     0.017029
      dxy     :     0.021160

  1 C s       :     2.876996  s :     2.876996
      pz      :     0.979659  p :     3.003575
      px      :     0.887880
      py      :     1.136036
      dz2     :     0.003810  d :     0.056954
      dxz     :     0.012166
      dyz     :     0.004701
      dx2y2   :     0.017155
      dxy     :     0.019122

  2 C s       :     2.791835  s :     2.791835
      pz      :     1.031301  p :     3.282323
      px      :     0.838240
      py      :     1.412783
      dz2     :     0.006584  d :     0.111782
      dxz     :     0.021945
      dyz     :     0.012180
      dx2y2   :     0.038871
      dxy     :     0.032201

  3 C s       :     3.938111  s :     3.938111
      pz      :     1.068277  p :     2.987967
      px      :     0.789056
      py      :     1.130633
      dz2     :     0.006419  d :     0.117567
      dxz     :     0.020329
      dyz     :     0.019595
      dx2y2   :     0.035963
      dxy     :     0.035261

  4 C s       :     3.078954  s :     3.078954
      pz      :     1.020502  p :     2.946692
      px      :     1.010570
      py      :     0.915620
      dz2     :     0.003818  d :     0.053899
      dxz     :     0.010966
      dyz     :     0.004742
      dx2y2   :     0.018853
      dxy     :     0.015520

  5 C s       :     2.988228  s :     2.988228
      pz      :     1.043141  p :     2.029901
      px      :     0.854578
      py      :     0.132181
      dz2     :     0.004722  d :     0.087483
      dxz     :     0.013523
      dyz     :     0.013582
      dx2y2   :     0.028749
      dxy     :     0.026907

  6 Cls       :     5.546458  s :     5.546458
      pz      :     3.919064  p :    11.010003
      px      :     3.155765
      py      :     3.935174
      dz2     :     0.004382  d :     0.031815
      dxz     :     0.008175
      dyz     :     0.000847
      dx2y2   :     0.010843
      dxy     :     0.007568

  7 O s       :     3.799542  s :     3.799542
      pz      :     1.762882  p :     4.447871
      px      :     1.230510
      py      :     1.454480
      dz2     :     0.001788  d :     0.012981
      dxz     :     0.001093
      dyz     :     0.001944
      dx2y2   :     0.002133
      dxy     :     0.006023

  8 O s       :     3.664733  s :     3.664733
      pz      :     1.601318  p :     4.276964
      px      :     1.273576
      py      :     1.402069
      dz2     :     0.002105  d :     0.014864
      dxz     :     0.002527
      dyz     :     0.002785
      dx2y2   :     0.005139
      dxy     :     0.002307

  9 C s       :     3.815102  s :     3.815102
      pz      :     1.631671  p :     4.028009
      px      :     1.405402
      py      :     0.990936
      dz2     :     0.024697  d :     0.112613
      dxz     :     0.017675
      dyz     :     0.028902
      dx2y2   :     0.022844
      dxy     :     0.018495

 10 C s       :     2.047848  s :     2.047848
      pz      :     1.032684  p :     2.456218
      px      :     1.267292
      py      :     0.156241
      dz2     :     0.018768  d :     0.082459
      dxz     :     0.015851
      dyz     :     0.017542
      dx2y2   :     0.015525
      dxy     :     0.014773

 11 C s       :     4.231297  s :     4.231297
      pz      :     0.906989  p :     2.743592
      px      :     0.942561
      py      :     0.894041
      dz2     :     0.012897  d :     0.056134
      dxz     :     0.010539
      dyz     :     0.012654
      dx2y2   :     0.008868
      dxy     :     0.011176

 12 C s       :     2.773691  s :     2.773691
      pz      :     0.511495  p :     1.980825
      px      :     0.535843
      py      :     0.933487
      dz2     :     0.017839  d :     0.086535
      dxz     :     0.014690
      dyz     :     0.020056
      dx2y2   :     0.018382
      dxy     :     0.015568

 13 C s       :     3.608803  s :     3.608803
      pz      :     1.026593  p :     2.910921
      px      :     0.883668
      py      :     1.000660
      dz2     :     0.010803  d :     0.057689
      dxz     :     0.009596
      dyz     :     0.012448
      dx2y2   :     0.012447
      dxy     :     0.012396

 14 C s       :     3.346466  s :     3.346466
      pz      :     1.125746  p :     3.046436
      px      :     1.056538
      py      :     0.864153
      dz2     :     0.014367  d :     0.055607
      dxz     :     0.009940
      dyz     :     0.012166
      dx2y2   :     0.007359
      dxy     :     0.011776

 15 Cls       :     5.547370  s :     5.547370
      pz      :     3.777366  p :    10.999836
      px      :     3.907586
      py      :     3.314884
      dz2     :     0.003872  d :     0.031569
      dxz     :     0.002754
      dyz     :     0.010098
      dx2y2   :     0.008747
      dxy     :     0.006097

 16 Cls       :     5.571062  s :     5.571062
      pz      :     3.317502  p :    11.020305
      px      :     3.771424
      py      :     3.931380
      dz2     :     0.010769  d :     0.031371
      dxz     :     0.010568
      dyz     :     0.005337
      dx2y2   :     0.001869
      dxy     :     0.002828

 17 H s       :     0.794088  s :     0.794088
      pz      :     0.006149  p :     0.025003
      px      :     0.009698
      py      :     0.009156

 18 H s       :     0.774789  s :     0.774789
      pz      :     0.005846  p :     0.025135
      px      :     0.004849
      py      :     0.014440

 19 H s       :     0.793083  s :     0.793083
      pz      :     0.006041  p :     0.025286
      px      :     0.004801
      py      :     0.014443

 20 H s       :     0.623889  s :     0.623889
      pz      :     0.019037  p :     0.063214
      px      :     0.027025
      py      :     0.017152

 21 H s       :     0.764401  s :     0.764401
      pz      :     0.006200  p :     0.025392
      px      :     0.010932
      py      :     0.008260

 22 H s       :     0.784669  s :     0.784669
      pz      :     0.012225  p :     0.024834
      px      :     0.007297
      py      :     0.005312

 23 H s       :     0.763593  s :     0.763593
      pz      :     0.006118  p :     0.025030
      px      :     0.010697
      py      :     0.008216



                     *******************************
                     * LOEWDIN POPULATION ANALYSIS *
                     *******************************

----------------------
LOEWDIN ATOMIC CHARGES
----------------------
   0 C :   -0.094934
   1 C :   -0.037533
   2 C :   -0.057187
   3 C :   -0.018358
   4 C :   -0.078094
   5 C :   -0.270887
   6 Cl:    0.232070
   7 O :   -0.080381
   8 O :   -0.116996
   9 C :   -0.058350
  10 C :   -0.242345
  11 C :   -0.093445
  12 C :   -0.268886
  13 C :   -0.068156
  14 C :   -0.030194
  15 Cl:    0.239699
  16 Cl:    0.270601
  17 H :    0.093307
  18 H :    0.108223
  19 H :    0.106513
  20 H :    0.148552
  21 H :    0.106432
  22 H :    0.097984
  23 H :    0.112363

-------------------------------
LOEWDIN REDUCED ORBITAL CHARGES
-------------------------------
  0 C s       :     2.791909  s :     2.791909
      pz      :     0.999646  p :     3.169501
      px      :     1.091847
      py      :     1.078008
      dz2     :     0.009119  d :     0.133524
      dxz     :     0.014419
      dyz     :     0.015995
      dx2y2   :     0.044511
      dxy     :     0.049480

  1 C s       :     2.780434  s :     2.780434
      pz      :     0.978567  p :     3.125911
      px      :     1.088801
      py      :     1.058543
      dz2     :     0.008865  d :     0.131188
      dxz     :     0.024851
      dyz     :     0.007908
      dx2y2   :     0.042483
      dxy     :     0.047081

  2 C s       :     2.745993  s :     2.745993
      pz      :     1.034067  p :     3.059701
      px      :     0.920735
      py      :     1.104899
      dz2     :     0.019084  d :     0.251492
      dxz     :     0.042847
      dyz     :     0.023049
      dx2y2   :     0.092447
      dxy     :     0.074065

  3 C s       :     2.752439  s :     2.752439
      pz      :     0.969759  p :     3.009998
      px      :     1.020351
      py      :     1.019888
      dz2     :     0.018032  d :     0.255920
      dxz     :     0.037859
      dyz     :     0.038174
      dx2y2   :     0.077849
      dxy     :     0.084006

  4 C s       :     2.784115  s :     2.784115
      pz      :     1.012210  p :     3.166581
      px      :     1.084417
      py      :     1.069955
      dz2     :     0.009471  d :     0.127398
      dxz     :     0.022284
      dyz     :     0.007795
      dx2y2   :     0.045248
      dxy     :     0.042601

  5 C s       :     2.836869  s :     2.836869
      pz      :     1.039900  p :     3.234432
      px      :     1.030547
      py      :     1.163985
      dz2     :     0.013359  d :     0.199586
      dxz     :     0.026018
      dyz     :     0.026473
      dx2y2   :     0.068470
      dxy     :     0.065266

  6 Cls       :     5.637494  s :     5.637494
      pz      :     3.896872  p :    11.095120
      px      :     3.330717
      py      :     3.867531
      dz2     :     0.004886  d :     0.035316
      dxz     :     0.008664
      dyz     :     0.000889
      dx2y2   :     0.012272
      dxy     :     0.008606

  7 O s       :     3.401617  s :     3.401617
      pz      :     1.764272  p :     4.659641
      px      :     1.313188
      py      :     1.582181
      dz2     :     0.002649  d :     0.019123
      dxz     :     0.001781
      dyz     :     0.002043
      dx2y2   :     0.003432
      dxy     :     0.009218

  8 O s       :     3.385241  s :     3.385241
      pz      :     1.689345  p :     4.706460
      px      :     1.466211
      py      :     1.550904
      dz2     :     0.003244  d :     0.025296
      dxz     :     0.004070
      dyz     :     0.004554
      dx2y2   :     0.008864
      dxy     :     0.004564

  9 C s       :     2.756983  s :     2.756983
      pz      :     1.052858  p :     3.049998
      px      :     1.068906
      py      :     0.928234
      dz2     :     0.052755  d :     0.251369
      dxz     :     0.039370
      dyz     :     0.067318
      dx2y2   :     0.050356
      dxy     :     0.041570

 10 C s       :     2.830380  s :     2.830380
      pz      :     1.030551  p :     3.221523
      px      :     1.080941
      py      :     1.110031
      dz2     :     0.040829  d :     0.190442
      dxz     :     0.039179
      dyz     :     0.042078
      dx2y2   :     0.034454
      dxy     :     0.033902

 11 C s       :     2.794211  s :     2.794211
      pz      :     1.073500  p :     3.166433
      px      :     1.032849
      py      :     1.060084
      dz2     :     0.029934  d :     0.132801
      dxz     :     0.025601
      dyz     :     0.032660
      dx2y2   :     0.020139
      dxy     :     0.024467

 12 C s       :     2.837667  s :     2.837667
      pz      :     1.099766  p :     3.233481
      px      :     1.101473
      py      :     1.032242
      dz2     :     0.039566  d :     0.197739
      dxz     :     0.033895
      dyz     :     0.047436
      dx2y2   :     0.039479
      dxy     :     0.037362

 13 C s       :     2.794839  s :     2.794839
      pz      :     1.041508  p :     3.139721
      px      :     1.027656
      py      :     1.070557
      dz2     :     0.022832  d :     0.133596
      dxz     :     0.021248
      dyz     :     0.029635
      dx2y2   :     0.028808
      dxy     :     0.031074

 14 C s       :     2.783185  s :     2.783185
      pz      :     1.041817  p :     3.118783
      px      :     1.021015
      py      :     1.055950
      dz2     :     0.032838  d :     0.128227
      dxz     :     0.023477
      dyz     :     0.030463
      dx2y2   :     0.017125
      dxy     :     0.024324

 15 Cls       :     5.639125  s :     5.639125
      pz      :     3.767427  p :    11.086135
      px      :     3.867787
      py      :     3.450921
      dz2     :     0.004244  d :     0.035041
      dxz     :     0.002992
      dyz     :     0.011367
      dx2y2   :     0.009701
      dxy     :     0.006737

 16 Cls       :     5.635841  s :     5.635841
      pz      :     3.450871  p :    11.058748
      px      :     3.738307
      py      :     3.869570
      dz2     :     0.011903  d :     0.034809
      dxz     :     0.011910
      dyz     :     0.005880
      dx2y2   :     0.002036
      dxy     :     0.003080

 17 H s       :     0.835354  s :     0.835354
      pz      :     0.015482  p :     0.071339
      px      :     0.028671
      py      :     0.027186

 18 H s       :     0.819651  s :     0.819651
      pz      :     0.014683  p :     0.072126
      px      :     0.013109
      py      :     0.044334

 19 H s       :     0.822037  s :     0.822037
      pz      :     0.015392  p :     0.071449
      px      :     0.012016
      py      :     0.044041

 20 H s       :     0.667321  s :     0.667321
      pz      :     0.048931  p :     0.184127
      px      :     0.082418
      py      :     0.052777

 21 H s       :     0.822261  s :     0.822261
      pz      :     0.016283  p :     0.071307
      px      :     0.031871
      py      :     0.023153

 22 H s       :     0.831290  s :     0.831290
      pz      :     0.036532  p :     0.070725
      px      :     0.020321
      py      :     0.013872

 23 H s       :     0.815714  s :     0.815714
      pz      :     0.017355  p :     0.071922
      px      :     0.030833
      py      :     0.023735



                      *****************************
                      * MAYER POPULATION ANALYSIS *
                      *****************************

  NA   - Mulliken gross atomic population
  ZA   - Total nuclear charge
  QA   - Mulliken gross atomic charge
  VA   - Mayer's total valence
  BVA  - Mayer's bonded valence
  FA   - Mayer's free valence

  ATOM       NA         ZA         QA         VA         BVA        FA
  0 C      6.6883     6.0000    -0.6883     4.1407     4.1407     0.0000
  1 C      5.9375     6.0000     0.0625     4.1404     4.1404    -0.0000
  2 C      6.1859     6.0000    -0.1859     4.1662     4.1662    -0.0000
  3 C      7.0436     6.0000    -1.0436     4.1918     4.1918    -0.0000
  4 C      6.0795     6.0000    -0.0795     3.6263     3.6263    -0.0000
  5 C      5.1056     6.0000     0.8944     1.5698     1.5698    -0.0000
  6 Cl    16.5883    17.0000     0.4117     0.7937     0.7937    -0.0000
  7 O      8.2604     8.0000    -0.2604     1.9809     1.9809     0.0000
  8 O      7.9566     8.0000     0.0434     1.6132     1.6132    -0.0000
  9 C      7.9557     6.0000    -1.9557     5.7842     5.7842    -0.0000
 10 C      4.5865     6.0000     1.4135     2.3077     2.3077     0.0000
 11 C      7.0310     6.0000    -1.0310     4.6940     4.6940    -0.0000
 12 C      4.8411     6.0000     1.1589     0.8865     0.8865    -0.0000
 13 C      6.5774     6.0000    -0.5774     4.0630     4.0630    -0.0000
 14 C      6.4485     6.0000    -0.4485     4.5555     4.5555     0.0000
 15 Cl    16.5788    17.0000     0.4212     0.8333     0.8333     0.0000
 16 Cl    16.6227    17.0000     0.3773     1.1704     1.1704    -0.0000
 17 H      0.8191     1.0000     0.1809     0.9443     0.9443     0.0000
 18 H      0.7999     1.0000     0.2001     0.9522     0.9522    -0.0000
 19 H      0.8184     1.0000     0.1816     0.9522     0.9522    -0.0000
 20 H      0.6871     1.0000     0.3129     0.9423     0.9423    -0.0000
 21 H      0.7898     1.0000     0.2102     0.9218     0.9218    -0.0000
 22 H      0.8095     1.0000     0.1905     0.9401     0.9401     0.0000
 23 H      0.7886     1.0000     0.2114     0.9411     0.9411     0.0000

  Mayer bond orders larger than 0.100000
B(  0-C ,  1-C ) :   1.2749 B(  0-C ,  2-C ) :   0.1062 B(  0-C ,  4-C ) :   0.3692 
B(  0-C ,  5-C ) :   0.9728 B(  0-C ,  6-Cl) :   0.6803 B(  0-C , 11-C ) :  -0.1478 
B(  0-C , 13-C ) :   0.2664 B(  0-C , 17-H ) :   0.9830 B(  0-C , 18-H ) :  -0.1614 
B(  1-C ,  2-C ) :   1.1050 B(  1-C ,  3-C ) :   0.8215 B(  1-C ,  6-Cl) :   0.1771 
B(  1-C , 10-C ) :   0.1346 B(  1-C , 13-C ) :  -0.2314 B(  1-C , 18-H ) :   1.0131 
B(  2-C ,  3-C ) :   1.2581 B(  2-C ,  4-C ) :  -0.2949 B(  2-C ,  7-O ) :  -0.5747 
B(  2-C ,  8-O ) :   1.8937 B(  2-C ,  9-C ) :   0.4548 B(  2-C , 13-C ) :   0.1361 
B(  2-C , 20-H ) :  -0.2008 B(  2-C , 23-H ) :   0.1171 B(  3-C ,  4-C ) :   0.8001 
B(  3-C ,  5-C ) :  -0.1688 B(  3-C ,  6-Cl) :   0.1737 B(  3-C ,  7-O ) :   2.0321 
B(  3-C ,  8-O ) :  -0.9622 B(  3-C ,  9-C ) :   0.1830 B(  3-C , 10-C ) :  -0.2437 
B(  3-C , 20-H ) :   0.2424 B(  4-C ,  5-C ) :   1.6301 B(  4-C ,  6-Cl) :   0.6357 
B(  4-C ,  7-O ) :  -0.3903 B(  4-C ,  8-O ) :  -0.1605 B(  4-C ,  9-C ) :  -0.2298 
B(  4-C , 10-C ) :   0.1048 B(  4-C , 11-C ) :   0.1405 B(  4-C , 19-H ) :   0.9355 
B(  5-C ,  6-Cl) :  -0.9057 B(  7-O , 20-H ) :   0.8539 B(  8-O ,  9-C ) :   1.7971 
B(  8-O , 10-C ) :  -0.7360 B(  8-O , 14-C ) :  -0.2029 B(  9-C , 10-C ) :   1.2810 
B(  9-C , 11-C ) :  -0.3826 B(  9-C , 12-C ) :  -0.4749 B(  9-C , 13-C ) :  -0.2234 
B(  9-C , 14-C ) :   1.6225 B(  9-C , 16-Cl) :   1.4206 B(  9-C , 18-H ) :   0.1318 
B(  9-C , 21-H ) :   0.1303 B( 10-C , 11-C ) :   1.7935 B( 10-C , 12-C ) :   0.2442 
B( 10-C , 13-C ) :   0.2022 B( 10-C , 14-C ) :   0.7910 B( 10-C , 15-Cl) :   0.1932 
B( 10-C , 16-Cl) :  -1.4396 B( 10-C , 21-H ) :  -0.1150 B( 11-C , 12-C ) :   0.9712 
B( 11-C , 13-C ) :   0.2717 B( 11-C , 14-C ) :  -0.3398 B( 11-C , 15-Cl) :   0.7014 
B( 11-C , 16-Cl) :   0.7616 B( 11-C , 21-H ) :   1.0055 B( 12-C , 13-C ) :   1.1354 
B( 12-C , 15-Cl) :  -0.9423 B( 12-C , 16-Cl) :   0.1349 B( 13-C , 14-C ) :   1.2849 
B( 13-C , 15-Cl) :   0.6723 B( 13-C , 22-H ) :   0.9805 B( 13-C , 23-H ) :  -0.1544 
B( 14-C , 15-Cl) :   0.1708 B( 14-C , 16-Cl) :   0.3066 B( 14-C , 23-H ) :   1.0709 


-------
TIMINGS
-------

Total SCF time: 0 days 0 hours 1 min 17 sec 

Total time                  ....      77.672 sec
Sum of individual times     ....      77.597 sec  ( 99.9%)

SCF preparation             ....       0.230 sec  (  0.3%)
Fock matrix formation       ....      76.773 sec  ( 98.8%)
  Startup                   ....       0.023 sec  (  0.0% of F)
  Split-RI-J                ....      11.368 sec  ( 14.8% of F)
  XC integration            ....      47.593 sec  ( 62.0% of F)
    Basis function eval.    ....       5.339 sec  ( 11.2% of XC)
    Density eval.           ....      19.906 sec  ( 41.8% of XC)
    XC-Functional eval.     ....       0.808 sec  (  1.7% of XC)
    XC-Potential eval.      ....      20.884 sec  ( 43.9% of XC)
  CPCM terms                ....      17.676 sec  ( 23.0% of F)
Diagonalization             ....       0.000 sec  (  0.0%)
Density matrix formation    ....       0.061 sec  (  0.1%)
Total Energy calculation    ....       0.031 sec  (  0.0%)
Population analysis         ....       0.026 sec  (  0.0%)
Orbital Transformation      ....       0.053 sec  (  0.1%)
Orbital Orthonormalization  ....       0.000 sec  (  0.0%)
DIIS solution               ....       0.236 sec  (  0.3%)
SOSCF solution              ....       0.187 sec  (  0.2%)
Finished LeanSCF after  77.7 sec

Maximum memory used throughout the entire LEANSCF-calculation: 80.5 MB

-------------------------   --------------------
FINAL SINGLE POINT ENERGY     -1992.890950938966
-------------------------   --------------------

------------------------------------------------------------------------------
                         ORCA SCF GRADIENT CALCULATION
------------------------------------------------------------------------------

Nuc. rep. gradient        (SHARK) ... done (  0.0 sec)
HCore & Overlap gradient  (SHARK) ... done (  0.5 sec)
Split-RIJ-J gradient      (SHARK) ... done (  3.4 sec)
XC gradient                       ... done ( 17.3 sec)
CPCM gradient                     ... done (  1.9 sec)

------------------
CARTESIAN GRADIENT
------------------

   1   C   :    0.004157079   -0.007004230   -0.001303305
   2   C   :    0.001452641    0.001327990    0.001231023
   3   C   :    0.014534896   -0.010049232    0.002697778
   4   C   :   -0.000533293    0.010416784   -0.000500572
   5   C   :    0.002204979    0.004471735   -0.000721789
   6   C   :   -0.017520723   -0.007452178   -0.000442902
   7   Cl  :    0.019242121    0.006309841    0.000872931
   8   O   :   -0.005615052   -0.000659641   -0.000297628
   9   O   :   -0.011596503    0.003111334   -0.005206179
  10   C   :    0.002572962   -0.000149824    0.003220449
  11   C   :    0.003309241   -0.006959001    0.009113573
  12   C   :   -0.005252163   -0.001869398   -0.002720156
  13   C   :    0.004702298    0.013251832   -0.006580495
  14   C   :    0.005026244    0.004185145    0.004741342
  15   C   :   -0.000503713   -0.003125300   -0.000194265
  16   Cl  :   -0.005089229   -0.015459625    0.007877713
  17   Cl  :   -0.003500933    0.004763061   -0.010061690
  18   H   :   -0.000269010    0.000550491   -0.001034126
  19   H   :   -0.001756483    0.000018688    0.001488549
  20   H   :   -0.001693140   -0.000997032   -0.000410145
  21   H   :   -0.002550211    0.002614820    0.002632896
  22   H   :    0.001040257    0.001644812   -0.000409260
  23   H   :   -0.001670501    0.001018711   -0.000783322
  24   H   :   -0.000691766    0.000040216   -0.003210422

Difference to translation invariance:
           :   -0.0000000000    0.0000000000   -0.0000000000

Difference to rotation invariance:
           :    0.0015220355   -0.0009157822   -0.0002077926

Norm of the Cartesian gradient     ...    0.0503178159
RMS gradient                       ...    0.0059300115
MAX gradient                       ...    0.0192421215

-------
TIMINGS
-------

Total SCF gradient time     ....       24.428 sec

Densities                   ....       0.002 sec  (  0.0%)
One electron gradient       ....       0.466 sec  (  1.9%)
RI-J Coulomb gradient       ....       3.372 sec  ( 13.8%)
XC gradient                 ....      17.334 sec  ( 71.0%)
CPCM gradient               ....       1.864 sec  (  7.6%)
   A-Matrix (El+Nuc)        ....       0.180 sec  (  0.7%)
   Potential                ....       1.684 sec  (  6.9%)

Maximum memory used throughout the entire SCFGRAD-calculation: 61.9 MB
------------------------------------------------------------------------------
                         ORCA GEOMETRY RELAXATION STEP
------------------------------------------------------------------------------

Reading the OPT-File                    .... done
Getting information on internals        .... done
Copying old internal coords+grads       .... done
Making the new internal coordinates     .... (2022 redundants) done
Validating the new internal coordinates .... (2022 redundants) done
Calculating the B-matrix                .... done
Calculating the G,G- and P matrices     .... done
Transforming gradient to internals      .... done
Projecting the internal gradient        .... done
Number of atoms                         ....  24
Number of internal coordinates          .... 118
Current Energy                          .... -1992.890950939 Eh
Current gradient norm                   ....     0.050317816 Eh/bohr
Maximum allowed component of the step   ....  0.300
Current trust radius                    ....  0.300
Evaluating the initial hessian          ....  (Almloef) done
Projecting the Hessian                  .... done
Forming the augmented Hessian           .... done
[...]
      px      :     0.933225
      py      :     1.079542
      dz2     :     0.019036  d :     0.241326
      dxz     :     0.037065
      dyz     :     0.024128
      dx2y2   :     0.089608
      dxy     :     0.071488

  3 C s       :     2.755618  s :     2.755618
      pz      :     0.956856  p :     3.001498
      px      :     0.994343
      py      :     1.050300
      dz2     :     0.019460  d :     0.255155
      dxz     :     0.044105
      dyz     :     0.033357
      dx2y2   :     0.076067
      dxy     :     0.082167

  4 C s       :     2.786381  s :     2.786381
      pz      :     1.012620  p :     3.164927
      px      :     1.084367
      py      :     1.067940
      dz2     :     0.009417  d :     0.125143
      dxz     :     0.022115
      dyz     :     0.007962
      dx2y2   :     0.042678
      dxy     :     0.042970

  5 C s       :     2.845243  s :     2.845243
      pz      :     1.035480  p :     3.199620
      px      :     1.024092
      py      :     1.140048
      dz2     :     0.014180  d :     0.187635
      dxz     :     0.024354
      dyz     :     0.025392
      dx2y2   :     0.060622
      dxy     :     0.063087

  6 Cls       :     5.662869  s :     5.662869
      pz      :     3.907522  p :    11.114703
      px      :     3.389725
      py      :     3.817456
      dz2     :     0.004314  d :     0.029945
      dxz     :     0.006285
      dyz     :     0.001336
      dx2y2   :     0.008366
      dxy     :     0.009644

  7 O s       :     3.398730  s :     3.398730
      pz      :     1.767891  p :     4.654352
      px      :     1.285449
      py      :     1.601012
      dz2     :     0.002758  d :     0.019058
      dxz     :     0.002027
      dyz     :     0.001571
      dx2y2   :     0.002550
      dxy     :     0.010154

  8 O s       :     3.401726  s :     3.401726
      pz      :     1.652195  p :     4.706543
      px      :     1.475612
      py      :     1.578735
      dz2     :     0.003633  d :     0.024590
      dxz     :     0.004917
      dyz     :     0.005242
      dx2y2   :     0.006273
      dxy     :     0.004525

  9 C s       :     2.758247  s :     2.758247
      pz      :     1.036155  p :     3.041079
      px      :     1.058972
      py      :     0.945951
      dz2     :     0.057592  d :     0.251541
      dxz     :     0.049681
      dyz     :     0.060714
      dx2y2   :     0.045539
      dxy     :     0.038015

 10 C s       :     2.832938  s :     2.832938
      pz      :     1.026508  p :     3.211139
      px      :     1.086769
      py      :     1.097862
      dz2     :     0.045355  d :     0.183688
      dxz     :     0.043471
      dyz     :     0.035890
      dx2y2   :     0.030042
      dxy     :     0.028930

 11 C s       :     2.794499  s :     2.794499
      pz      :     1.086981  p :     3.162230
      px      :     1.041687
      py      :     1.033563
      dz2     :     0.034775  d :     0.132446
      dxz     :     0.031822
      dyz     :     0.030386
      dx2y2   :     0.016171
      dxy     :     0.019291

 12 C s       :     2.843843  s :     2.843843
      pz      :     1.082161  p :     3.215176
      px      :     1.103525
      py      :     1.029489
      dz2     :     0.040773  d :     0.186439
      dxz     :     0.042663
      dyz     :     0.040834
      dx2y2   :     0.030228
      dxy     :     0.031941

 13 C s       :     2.794696  s :     2.794696
      pz      :     1.054914  p :     3.134769
      px      :     1.045415
      py      :     1.034440
      dz2     :     0.027803  d :     0.133143
      dxz     :     0.027690
      dyz     :     0.022985
      dx2y2   :     0.027350
      dxy     :     0.027316

 14 C s       :     2.779964  s :     2.779964
      pz      :     1.054931  p :     3.129818
      px      :     1.040177
      py      :     1.034710
      dz2     :     0.037345  d :     0.128445
      dxz     :     0.029061
      dyz     :     0.027172
      dx2y2   :     0.014055
      dxy     :     0.020812

 15 Cls       :     5.661710  s :     5.661710
      pz      :     3.685694  p :    11.108559
      px      :     3.820435
      py      :     3.602429
      dz2     :     0.003862  d :     0.030481
      dxz     :     0.005346
      dyz     :     0.010131
      dx2y2   :     0.005570
      dxy     :     0.005572

 16 Cls       :     5.649734  s :     5.649734
      pz      :     3.405077  p :    11.071557
      px      :     3.781822
      py      :     3.884657
      dz2     :     0.012417  d :     0.031907
      dxz     :     0.010427
      dyz     :     0.005734
      dx2y2   :     0.001251
      dxy     :     0.002078

 17 H s       :     0.833284  s :     0.833284
      pz      :     0.015820  p :     0.071864
      px      :     0.033870
      py      :     0.022173

 18 H s       :     0.820250  s :     0.820250
      pz      :     0.015078  p :     0.070979
      px      :     0.011575
      py      :     0.044326

 19 H s       :     0.821357  s :     0.821357
      pz      :     0.016382  p :     0.072076
      px      :     0.010796
      py      :     0.044897

 20 H s       :     0.664672  s :     0.664672
      pz      :     0.046093  p :     0.184669
      px      :     0.074945
      py      :     0.063631

 21 H s       :     0.821473  s :     0.821473
      pz      :     0.014060  p :     0.071698
      px      :     0.036149
      py      :     0.021489

 22 H s       :     0.830975  s :     0.830975
      pz      :     0.039187  p :     0.071192
      px      :     0.018362
      py      :     0.013643

 23 H s       :     0.815961  s :     0.815961
      pz      :     0.014798  p :     0.073498
      px      :     0.036018
      py      :     0.022683



                      *****************************
                      * MAYER POPULATION ANALYSIS *
                      *****************************

  NA   - Mulliken gross atomic population
  ZA   - Total nuclear charge
  QA   - Mulliken gross atomic charge
  VA   - Mayer's total valence
  BVA  - Mayer's bonded valence
  FA   - Mayer's free valence

  ATOM       NA         ZA         QA         VA         BVA        FA
  0 C      6.6959     6.0000    -0.6959     4.2685     4.2685     0.0000
  1 C      6.0921     6.0000    -0.0921     4.2159     4.2159    -0.0000
  2 C      6.1457     6.0000    -0.1457     3.8774     3.8774     0.0000
  3 C      6.4981     6.0000    -0.4981     4.3658     4.3658     0.0000
  4 C      6.3161     6.0000    -0.3161     3.8057     3.8057    -0.0000
  5 C      5.0756     6.0000     0.9244     1.6848     1.6848    -0.0000
  6 Cl    16.5632    17.0000     0.4368     0.8133     0.8133     0.0000
  7 O      8.2575     8.0000    -0.2575     2.0173     2.0173    -0.0000
  8 O      7.9312     8.0000     0.0688     1.5892     1.5892     0.0000
  9 C      8.7794     6.0000    -2.7794     5.0466     5.0466    -0.0000
 10 C      4.6734     6.0000     1.3266     5.0073     5.0073     0.0000
 11 C      6.6241     6.0000    -0.6241     4.1431     4.1431    -0.0000
 12 C      4.7578     6.0000     1.2422     0.3244     0.3244     0.0000
 13 C      6.4870     6.0000    -0.4870     3.7679     3.7679     0.0000
 14 C      6.4036     6.0000    -0.4036     4.6630     4.6630    -0.0000
 15 Cl    16.5746    17.0000     0.4254     0.7687     0.7687    -0.0000
 16 Cl    16.6249    17.0000     0.3751     0.9666     0.9666    -0.0000
 17 H      0.8140     1.0000     0.1860     0.9435     0.9435    -0.0000
 18 H      0.8112     1.0000     0.1888     0.9583     0.9583     0.0000
 19 H      0.8136     1.0000     0.1864     0.9494     0.9494     0.0000
 20 H      0.6824     1.0000     0.3176     0.9462     0.9462    -0.0000
 21 H      0.7915     1.0000     0.2085     0.9241     0.9241    -0.0000
 22 H      0.8096     1.0000     0.1904     0.9396     0.9396     0.0000
 23 H      0.7774     1.0000     0.2226     0.9309     0.9309     0.0000

  Mayer bond orders larger than 0.100000
B(  0-C ,  1-C ) :   1.2092 B(  0-C ,  3-C ) :  -0.1018 B(  0-C ,  4-C ) :   0.3563 
B(  0-C ,  5-C ) :   1.1574 B(  0-C ,  6-Cl) :   0.6954 B(  0-C ,  9-C ) :  -0.1021 
B(  0-C , 10-C ) :   0.1350 B(  0-C , 13-C ) :   0.1245 B(  0-C , 14-C ) :  -0.1611 
B(  0-C , 17-H ) :   0.9855 B(  0-C , 18-H ) :  -0.1347 B(  1-C ,  2-C ) :   1.1711 
B(  1-C ,  3-C ) :   0.9550 B(  1-C ,  5-C ) :  -0.1249 B(  1-C ,  6-Cl) :   0.2042 
B(  1-C ,  8-O ) :  -0.1343 B(  1-C ,  9-C ) :   0.4290 B(  1-C , 11-C ) :  -0.2565 
B(  1-C , 13-C ) :  -0.1629 B(  1-C , 18-H ) :   1.0552 B(  2-C ,  3-C ) :   1.0763 
B(  2-C ,  5-C ) :   0.2090 B(  2-C ,  7-O ) :  -0.5709 B(  2-C ,  8-O ) :   2.0287 
B(  2-C , 10-C ) :   0.1409 B(  2-C , 11-C ) :   0.1941 B(  2-C , 13-C ) :   0.2142 
B(  2-C , 14-C ) :  -0.3983 B(  2-C , 16-Cl) :  -0.1821 B(  2-C , 20-H ) :  -0.1787 
B(  2-C , 23-H ) :   0.1592 B(  3-C ,  4-C ) :   1.0358 B(  3-C ,  5-C ) :  -0.2285 
B(  3-C ,  6-Cl) :   0.1846 B(  3-C ,  7-O ) :   2.0685 B(  3-C ,  8-O ) :  -0.8470 
B(  3-C ,  9-C ) :   0.1095 B(  3-C , 10-C ) :  -0.3290 B(  3-C , 11-C ) :   0.1144 
B(  3-C , 13-C ) :  -0.2289 B(  3-C , 14-C ) :   0.2442 B(  3-C , 16-Cl) :   0.1121 
B(  3-C , 20-H ) :   0.1988 B(  4-C ,  5-C ) :   1.5322 B(  4-C ,  6-Cl) :   0.6089 
B(  4-C ,  7-O ) :  -0.4344 B(  4-C ,  8-O ) :  -0.1536 B(  4-C ,  9-C ) :  -0.3031 
B(  4-C , 11-C ) :   0.1221 B(  4-C , 19-H ) :   0.9321 B(  5-C ,  6-Cl) :  -0.8812 
B(  5-C , 14-C ) :   0.1791 B(  7-O ,  9-C ) :   0.2500 B(  7-O , 14-C ) :  -0.1779 
B(  7-O , 20-H ) :   0.8410 B(  8-O ,  9-C ) :   1.6062 B(  8-O , 10-C ) :  -0.7427 
B(  9-C , 10-C ) :   2.1061 B(  9-C , 11-C ) :  -1.6087 B(  9-C , 12-C ) :  -0.7212 
B(  9-C , 13-C ) :  -0.5787 B(  9-C , 14-C ) :   1.8132 B(  9-C , 16-Cl) :   1.6199 
B(  9-C , 18-H ) :   0.1164 B(  9-C , 21-H ) :   0.2018 B( 10-C , 11-C ) :   3.2635 
B( 10-C , 12-C ) :   0.1083 B( 10-C , 13-C ) :   0.4569 B( 10-C , 14-C ) :   1.3235 
B( 10-C , 15-Cl) :   0.2281 B( 10-C , 16-Cl) :  -1.5791 B( 10-C , 21-H ) :  -0.1021 
B( 11-C , 12-C ) :   0.8669 B( 11-C , 14-C ) :  -0.9230 B( 11-C , 15-Cl) :   0.7450 
B( 11-C , 16-Cl) :   0.5259 B( 11-C , 21-H ) :   0.9854 B( 12-C , 13-C ) :   1.1784 
B( 12-C , 15-Cl) :  -1.0770 B( 12-C , 16-Cl) :   0.1301 B( 12-C , 21-H ) :  -0.1259 
B( 13-C , 14-C ) :   1.3177 B( 13-C , 15-Cl) :   0.6823 B( 13-C , 22-H ) :   0.9839 
B( 13-C , 23-H ) :  -0.1593 B( 14-C , 15-Cl) :   0.1483 B( 14-C , 16-Cl) :   0.3527 
B( 14-C , 23-H ) :   1.1074 

-------
TIMINGS
-------

Total SCF time: 0 days 0 hours 0 min 37 sec 

Total time                  ....      37.082 sec
Sum of individual times     ....      36.991 sec  ( 99.8%)

SCF preparation             ....       0.237 sec  (  0.6%)
Fock matrix formation       ....      36.455 sec  ( 98.3%)
  Startup                   ....       0.012 sec  (  0.0% of F)
  Split-RI-J                ....       5.557 sec  ( 15.2% of F)
  XC integration            ....      22.262 sec  ( 61.1% of F)
    Basis function eval.    ....       2.611 sec  ( 11.7% of XC)
    Density eval.           ....       9.385 sec  ( 42.2% of XC)
    XC-Functional eval.     ....       0.371 sec  (  1.7% of XC)
    XC-Potential eval.      ....       9.554 sec  ( 42.9% of XC)
  CPCM terms                ....       8.560 sec  ( 23.5% of F)
Diagonalization             ....       0.000 sec  (  0.0%)
Density matrix formation    ....       0.030 sec  (  0.1%)
Total Energy calculation    ....       0.021 sec  (  0.1%)
Population analysis         ....       0.043 sec  (  0.1%)
Orbital Transformation      ....       0.027 sec  (  0.1%)
Orbital Orthonormalization  ....       0.000 sec  (  0.0%)
DIIS solution               ....       0.031 sec  (  0.1%)
SOSCF solution              ....       0.147 sec  (  0.4%)
Finished LeanSCF after  37.3 sec

Maximum memory used throughout the entire LEANSCF-calculation: 83.1 MB

-------------------------   --------------------
FINAL SINGLE POINT ENERGY     -1992.897702020340
-------------------------   --------------------

                                *** OPTIMIZATION RUN DONE ***


------------------------------------------------------------------------------
                              ORCA PROPERTY CALCULATIONS
------------------------------------------------------------------------------

GBWName                                 ... Triclosan\Triclosan_TPSS_6-311+G\Triclosan_TPSS_6-311+G.orcainp.gbw
Number of atoms                         ...     24
Number of basis functions               ...    440
Max core memory                         ...   1024 MB

Electric properties:
Dipole moment                           ... YES
Quadrupole moment                       ...  NO
Static polarizability (Dipole/Dipole)   ...  NO
Static polarizability (Dipole/Quad.)    ...  NO
Static polarizability (Quad./Quad.)     ...  NO
Static polarizability (Velocity)        ...  NO

Atomic electric properties:
Dipole moment                           ...  NO
Quadrupole moment                       ...  NO
Static polarizability                   ...  NO

Choice of electric origin               ... Center of mass
Position of electric origin             ...     4.644369     3.853398    -1.058720

General magnetic properties:
Magnetizability                         ...  NO

EPR properties:
g-Tensor (aka g-matrix)                 ...  NO
Zero-Field splitting spin-orbit         ...  NO
Zero-field splitting spin-spin          ...  NO
Hyperfine couplings                     ...  NO (   0 nuclei)
Quadrupole couplings                    ...  NO (   0 nuclei)
Contact density                         ...  NO (   0 nuclei)

NMR properties:
Chemical shifts                         ...  NO (   0 nuclei)
Spin-rotation constants                 ...  NO (   0 nuclei)
Spin-spin couplings                     ...  NO (   0 nuclei,    0 pairs)

Choice of magnetic origin               ... GIAO
Position of magnetic origin             ...     0.000000     0.000000     0.000000

Properties with geometric perturbations:
SCF Hessian                             ...  NO
IR spectrum                             ...  NO
VCD spectrum                            ...  NO
X-ray spectroscopy properties:
SCF XES/XAS/RIXS spectra                ...  NO


-------------
DIPOLE MOMENT
-------------

Method             : SCF
Type of density    : Electron Density
Multiplicity       :   1
Irrep              :   0
Energy             : -1992.8977020203396933 Eh
Relativity type    : 
Basis              : AO
                                X                 Y                 Z
Electronic contribution:      4.335002742       3.712784490       0.943968624
Nuclear contribution   :     -4.340208821      -3.183771698      -1.315947366
                        -----------------------------------------
Total Dipole Moment    :     -0.005206079       0.529012793      -0.371978742
                        -----------------------------------------
Magnitude (a.u.)       :      0.646722369
Magnitude (Debye)      :      1.643837625



--------------------
Rotational spectrum 
--------------------
 
Rotational constants in cm-1:             0.021556             0.004940             0.004362 
Rotational constants in MHz :           646.237434           148.094203           130.755080 

Dipole components along the rotational axes: 
x,y,z [a.u.] :    -0.402941    -0.484202     0.146413 
x,y,z [Debye]:    -1.024195    -1.230743     0.372151 

 

Dipole moment calculation done in   0.0 sec 

Maximum memory used throughout the entire PROP-calculation: 35.3 MB

--------------------------------
SUGGESTED CITATIONS FOR THIS RUN
--------------------------------

Below you find a list of papers that are relevant to this ORCA run
We neither can nor want to force you to cite these papers, but we appreciate if you do
You receive ORCA, which is the product of decades of hard work by many enthusiastic individuals, for free
The only thing we kindly ask in return is that you cite our papers,
We deeply appreciate it, if you show your appreciation for ORCA by not just citing the generic ORCA reference.

Please note that relegating all ORCA citations to the supporting information does *not* help us.
SI sections are not indexed - citations you put there will not count into any citation statistics
But we need these citations in order to attract the funding resources that allow us to do what we are doing

Therefore, if you are a happy ORCA user, please consider citing a few of the papers listed below in the main body of your paper

In addition to the list printed below, the program has created the file Triclosan\Triclosan_TPSS_6-311+G\Triclosan_TPSS_6-311+G.orcainp.bibtex that contains the list in bibtex format
You can import this file easily into all common literature databanks and citation aid programs


List of essential papers. We consider these as the minimum necessary citations

  1. Neese,F.
     Software update: the ORCA program system, version 5.0
     WIRES Comput. Molec. Sci., 2022 12(1)e1606
     doi.org/10.1002/wcms.1606

List of papers to cite with high priority. The work reported in these papers was absolutely
necessary for this run to complete.
Our perspective: the developers of density functionals and basis sets usually get cited in chemistry papers
Good! But without the algorithms to do something with them, the functionals or basis sets would not do anything.
Hence, in our opinion, the algorithm design and method developments papers are equally worthy of getting cited

  1. Neese,F.
     An improvement of the resolution of the identity approximation for the formation of the Coulomb matrix
     J. Comp. Chem., 2003 24(14)1740-1747
     doi.org/10.1002/jcc.10318
  2. Garcia-Rates,M.; Neese,F.
     Effect of the Solute Cavity on the Solvation Energy and its Derivatives within the Framework of the Gaussian Charge Scheme
     J. Comput. Chem., 2020 41 922-939
     doi.org/10.1002/jcc.26139
  3. Neese,F.
     The SHARK Integral Generation and Digestion System
     J. Comp. Chem., 2022  1-16
     doi.org/10.1002/jcc.26942

List of suggested additional citations. These are papers that are important in the 'surrounding' of 
of this run, or papers that preceded the highly important papers. If you like your results we are grateful for a citation.

  1. Neese,F.
     The ORCA program system
     WIRES Comput. Molec. Sci., 2012 2(1)73-78
     doi.org/10.1002/wcms.81
  2. Neese,F.
     Software update: the ORCA program system, version 4.0
     WIRES Comput. Molec. Sci., 2018 8(1)1-6
     doi.org/10.1002/wcms.1327
  3. Neese,F.; Wennmohs,F.; Becker,U.; Riplinger,C.
     The ORCA quantum chemistry program package
     J. Chem. Phys., 2020 152 Art. No. L224108
     doi.org/10.1063/5.0004608

List of optional additional citations

  1. Neese,F.
     Approximate second-order SCF convergence for spin unrestricted wavefunctions
     Chem. Phys. Lett., 2000 325(1-3)93-98
     doi.org/10.1016/s0009-2614(00)00662-x

Timings for individual modules:

Sum of individual times          ...     1199.984 sec (=  20.000 min)
Startup calculation              ...       14.912 sec (=   0.249 min)   1.2 %
SCF iterations                   ...      868.577 sec (=  14.476 min)  72.4 %
Property calculations            ...        0.100 sec (=   0.002 min)   0.0 %
SCF Gradient evaluation          ...      316.286 sec (=   5.271 min)  26.4 %
Geometry relaxation              ...        0.109 sec (=   0.002 min)   0.0 %
                             ****ORCA TERMINATED NORMALLY****
TOTAL RUN TIME: 0 days 0 hours 20 minutes 1 seconds 416 msec
