
                                 *****************
                                 * O   R   C   A *
                                 *****************

                                            #,                                       
                                            ###                                      
                                            ####                                     
                                            #####                                    
                                            ######                                   
                                           ########,                                 
                                     ,,################,,,,,                         
                               ,,#################################,,                 
                          ,,##########################################,,             
                       ,#########################################, ''#####,          
                    ,#############################################,,   '####,        
                  ,##################################################,,,,####,       
                ,###########''''           ''''###############################       
              ,#####''   ,,,,##########,,,,          '''####'''          '####       
            ,##' ,,,,###########################,,,                        '##       
           ' ,,###''''                  '''############,,,                           
         ,,##''                                '''############,,,,        ,,,,,,###''
      ,#''                                            '''#######################'''  
     '                                                          ''''####''''         
             ,#######,   #######,   ,#######,      ##                                
            ,#'     '#,  ##    ##  ,#'     '#,    #''#        ,####,   ,####,        
            ##       ##  ##   ,#'  ##            #'  '#       #'       #'  '#        
            ##       ##  #######   ##           ,######,      #####,   #    #        
            '#,     ,#'  ##    ##  '#,     ,#' ,#      #,     #,   #   #,  ,#        
             '#######'   ##     ##  '#######'  #'      '#     '####' # '####'        



                #########################################################
                #                        -***-                          #
                #          Department of theory and spectroscopy        #
                #                                                       #
                #                      Frank Neese                      #
                #                                                       #
                #     Directorship, Architecture, Infrastructure        #
                #                    SHARK, DRIVERS                     #
                #        Core code/Algorithms in most modules           #
                #                                                       #
                #        Max Planck Institute fuer Kohlenforschung      #
                #                Kaiser Wilhelm Platz 1                 #
                #                 D-45470 Muelheim/Ruhr                 #
                #                      Germany                          #
                #                                                       #
                #                  All rights reserved                  #
                #                        -***-                          #
                #########################################################


                         Program Version 6.0.0  -   RELEASE   -


 With contributions from (in alphabetic order):
   Daniel Aravena         : Magnetic Suceptibility
   Michael Atanasov       : Ab Initio Ligand Field Theory (pilot matlab implementation)
   Alexander A. Auer      : GIAO ZORA, VPT2 properties, NMR spectrum
   Ute Becker             : All parallelization in ORCA, NUMFREQ, NUMCALC
   Giovanni Bistoni       : ED, misc. LED, open-shell LED, HFLD
   Martin Brehm           : Molecular dynamics
   Dmytro Bykov           : pre 5.0 version of the SCF Hessian
   Marcos Casanova-Páez   : Triplet and SCS-CIS(D). UHF-(DLPNO)-IP/EA/STEOM-CCSD. UHF-CVS-IP/STEOM-CCSD
   Vijay G. Chilkuri      : MRCI spin determinant printing, contributions to CSF-ICE
   Pauline Colinet        : FMM embedding
   Dipayan Datta          : RHF DLPNO-CCSD density
   Achintya Kumar Dutta   : EOM-CC, STEOM-CC
   Nicolas Foglia         : Exact transition moments, OPA infrastructure, MCD improvements
   Dmitry Ganyushin       : Spin-Orbit,Spin-Spin,Magnetic field MRCI
   Miquel Garcia          : C-PCM and meta-GGA Hessian, CCSD/C-PCM, Gaussian charge scheme
   Tiago L. C. Gouveia    : GS-ROHF, GS-ROCIS
   Yang Guo               : DLPNO-NEVPT2, F12-NEVPT2, CIM, IAO-localization
   Andreas Hansen         : Spin unrestricted coupled pair/coupled cluster methods
   Ingolf Harden          : AUTO-CI MPn and infrastructure 
   Benjamin Helmich-Paris : MC-RPA, TRAH-(SCF,CASSCF), AVAS, COSX integrals, SCF dyn. polar.
   Lee Huntington         : MR-EOM, pCC
   Robert Izsak           : Overlap fitted RIJCOSX, COSX-SCS-MP3, EOM
   Riya Kayal             : Wick's Theorem for AUTO-CI, AUTO-CI UHF-CCSDT
   Emily Kempfer          : AUTO-CI, RHF CISDT and CCSDT
   Christian Kollmar      : KDIIS, OOCD, Brueckner-CCSD(T), CCSD density, CASPT2, CASPT2-K, improved NEVPT2
   Axel Koslowski         : Symmetry handling
   Simone Kossmann        : Meta GGA functionals, TD-DFT gradient, OOMP2, (MP2 Hessian; deprecated post 5.0)
   Lucas Lang             : DCDCAS
   Marvin Lechner         : AUTO-CI (C++ implementation), FIC-MRCC
   Spencer Leger          : CASSCF response
   Dagmar Lenk            : GEPOL surface, SMD, ORCA-2-JSON
   Dimitrios Liakos       : Extrapolation schemes; Compound Job, initial MDCI parallelization
   Dimitrios Manganas     : Further ROCIS development; embedding schemes. LFT, Crystal Embedding
   Dimitrios Pantazis     : SARC Basis sets
   Anastasios Papadopoulos: AUTO-CI, single reference methods and gradients
   Taras Petrenko         : pre 6.0 DFT Hessian and TD-DFT gradient, (ASA, deprecated), ECA, 1-Electron XAS/XES, NRVS
   Peter Pinski           : DLPNO-MP2, DLPNO-MP2 Gradient
   Christoph Reimann      : Effective Core Potentials
   Marius Retegan         : Local ZFS, SOC
   Christoph Riplinger    : Optimizer, TS searches, QM/MM, DLPNO-CCSD(T), (RO)-DLPNO pert. Triples
   Michael Roemelt        : Original ROCIS implementation
   Masaaki Saitow         : Open-shell DLPNO-CCSD energy and density
   Barbara Sandhoefer     : DKH picture change effects
   Kantharuban Sivalingam : CASSCF convergence/infrastructure, NEVPT2 and variants, FIC-MRCI
   Bernardo de Souza      : ESD, SOC TD-DFT
   Georgi Stoychev        : AutoAux, RI-MP2 NMR, DLPNO-MP2 response, X2C
   Van Anh Tran           : RI-MP2 g-tensors
   Willem Van den Heuvel  : Paramagnetic NMR
   Zikuan Wang            : NOTCH, Electric field optimization 
   Frank Wennmohs         : Technical directorship and infrastructure
   Hang Xu                : AUTO-CI-Response properties 


 We gratefully acknowledge several colleagues who have allowed us to
 interface, adapt or use parts of their codes:
   Stefan Grimme, W. Hujo, H. Kruse, P. Pracht,  : VdW corrections, initial TS optimization,
                  C. Bannwarth, S. Ehlert,         DFT functionals, gCP, sTDA/sTD-DF
                  L. Wittmann, M. Mueller
   Ed Valeev, F. Pavosevic, A. Kumar             : LibInt (2-el integral package), F12 methods
   Garnet Chan, S. Sharma, J. Yang, R. Olivares  : DMRG
   Ulf Ekstrom                                   : XCFun DFT Library
   Mihaly Kallay                                 : mrcc  (arbitrary order and MRCC methods)
   Frank Weinhold                                : gennbo (NPA and NBO analysis)
   Simon Mueller                                 : openCOSMO-RS
   Christopher J. Cramer and Donald G. Truhlar   : smd solvation model
   Lars Goerigk                                  : TD-DFT with DH, B97 family of functionals
   V. Asgeirsson, H. Jonsson                     : NEB implementation
   FAccTs GmbH                                   : IRC, NEB, NEB-TS, DLPNO-Multilevel, CI-OPT
                                                   MM, QMMM, 2- and 3-layer-ONIOM, Crystal-QMMM,
                                                   LR-CPCM, SF, NACMEs, symmetry and pop. for TD-DFT,
                                                   nearIR, NL-DFT gradient (VV10), updates on ESD,
                                                   ML-optimized integration grids, MBIS, APM,
                                                   GOAT, DOCKER, SOLVATOR, interface openCOSMO-RS
   S Lehtola, MJT Oliveira, MAL Marques          : LibXC Library
   Liviu Ungur et al                             : ANISO software


 Your calculation uses the libint2 library for the computation of 2-el integrals
 For citations please refer to: http://libint.valeyev.net

 Your ORCA version has been built with support for libXC version: 6.2.2
 For citations please refer to: https://libxc.gitlab.io

 This ORCA versions uses:
   CBLAS   interface :  Fast vector & matrix operations
   LAPACKE interface :  Fast linear algebra routines
   Shared memory     :  Shared parallel matrices


Warning: RI is on but no J-basis has been assigned. Assigning Def2/J (nothing to worry about!)
================================================================================

----- Orbital basis set information -----
Your calculation utilizes the basis: def2-TZVP
   F. Weigend and R. Ahlrichs, Phys. Chem. Chem. Phys. 7, 3297 (2005).

----- AuxJ basis set information -----
Your calculation utilizes the auxiliary basis: def2/J
   F. Weigend, Phys. Chem. Chem. Phys. 8, 1057 (2006).

================================================================================
                                        WARNINGS
                       Please study these warnings very carefully!
================================================================================


WARNING: Geometry Optimization
  ===> : Switching off AutoStart
         For restart on a previous wavefunction, please use MOREAD

================================================================================
                                       INPUT FILE
================================================================================
NAME = Dexketoprofen\Dexketoprofen_TPSS_def2-TZVP\Dexketoprofen_TPSS_def2-TZVP.orcainp
|  1> # ORCA input file
|  2> # 
|  3> !TPSS def2-TZVP Opt CPCM(WATER)
|  4> * xyz 0 1
|  5>    H        2.19682        -0.91154         0.64044
|  6>    C        2.08274        -0.07230        -0.06151
|  7>    C        0.61781         0.37039        -0.01313
|  8>    C        2.95733         1.04661         0.51400
|  9>    O        4.28094         0.77780         0.52831
| 10>    O        2.52215         2.08691         0.98966
| 11>    C        2.46394        -0.56230        -1.45986
| 12>    C        2.32706        -1.92842        -1.78584
| 13>    C        2.67594        -2.40638        -3.06924
| 14>    C        3.08558        -1.51093        -4.05073
| 15>    C        3.20379        -0.15525        -3.74761
| 16>    C        2.90509         0.31130        -2.46255
| 17>    C        2.63455        -3.85377        -3.42227
| 18>    O        2.31712        -4.18658        -4.56116
| 19>    C        3.03282        -4.89946        -2.43983
| 20>    C        3.93140        -4.62386        -1.40002
| 21>    C        4.30356        -5.63104        -0.51010
| 22>    C        3.79973        -6.92143        -0.66808
| 23>    C        2.92349        -7.20672        -1.71455
| 24>    C        2.54088        -6.19946        -2.60247
| 25>    H        0.34865         0.71015         0.99629
| 26>    H       -0.06373        -0.44391        -0.27769
| 27>    H        0.43042         1.20885        -0.69604
| 28>    H        4.52517        -0.07595         0.12336
| 29>    H        1.94296        -2.62253        -1.04434
| 30>    H        3.32225        -1.86705        -5.05606
| 31>    H        3.53216         0.53830        -4.52112
| 32>    H        3.01182         1.37929        -2.26715
| 33>    H        4.36991        -3.63997        -1.27773
| 34>    H        4.99900        -5.41307         0.29648
| 35>    H        4.10396        -7.70787         0.01569
| 36>    H        2.54331        -8.21744        -1.84315
| 37>    H        1.86720        -6.43272        -3.42364
| 38> *
| 39> 
| 40>                          ****END OF INPUT****
================================================================================

                       *****************************
                       * Geometry Optimization Run *
                       *****************************

Geometry optimization settings:
Update method            Update   .... BFGS
Choice of coordinates    CoordSys .... (2022) Redundant Internals
Initial Hessian          InHess   .... Almloef's Model
Max. no of cycles        MaxIter  .... 99

Convergence Tolerances:
Energy Change            TolE     ....  5.0000e-06 Eh
Max. Gradient            TolMAXG  ....  3.0000e-04 Eh/bohr
RMS Gradient             TolRMSG  ....  1.0000e-04 Eh/bohr
Max. Displacement        TolMAXD  ....  4.0000e-03 bohr
RMS Displacement         TolRMSD  ....  2.0000e-03 bohr
Strict Convergence                .... False

------------------------------------------------------------------------------
                        ORCA OPTIMIZATION COORDINATE SETUP
------------------------------------------------------------------------------

The optimization will be done in redundant internal coordinates (2022)
Making redundant internal coordinates   ...  (2022 redundants) done
Evaluating the initial hessian          ...  (Almloef) done
Evaluating the coordinates              ...  done
Calculating the B-matrix                .... done
Calculating the G-matrix                .... done
Diagonalizing the G-matrix              .... done
Small eigenvalue found = 3.135e-03
Small eigenvalue found = 1.261e-02
Small eigenvalue found = 1.612e-02
Small eigenvalue found = 2.815e-02
The first mode is                       ....   70
The number of degrees of freedom        ....   93

    -----------------------------------------------------------------
                    Redundant Internal Coordinates


    -----------------------------------------------------------------
         Definition                    Initial Value    Approx d2E/dq
    -----------------------------------------------------------------
      1. B(C   1,H   0)                  1.1000         0.347070   
      2. B(C   2,C   1)                  1.5311         0.372038   
      3. B(C   3,C   1)                  1.5323         0.370371   
      4. B(O   4,C   3)                  1.3507         0.646497   
      5. B(O   5,C   3)                  1.2239         1.030208   
      6. B(C   6,C   1)                  1.5300         0.373621   
      7. B(C   7,C   6)                  1.4111         0.578136   
      8. B(C   8,C   7)                  1.4133         0.573645   
      9. B(C   9,C   8)                  1.3903         0.624088   
     10. B(C  10,C   9)                  1.3942         0.615287   
     11. B(C  11,C  10)                  1.3994         0.603629   
     12. B(C  11,C   6)                  1.4011         0.599756   
     13. B(C  12,C   8)                  1.4904         0.432079   
     14. B(O  13,C  12)                  1.2282         1.013770   
     15. B(C  14,C  12)                  1.4891         0.434218   
     16. B(C  15,C  14)                  1.4016         0.598634   
     17. B(C  16,C  15)                  1.3946         0.614357   
     18. B(C  17,C  16)                  1.3942         0.615137   
     19. B(C  18,C  17)                  1.3944         0.614831   
     20. B(C  19,C  18)                  1.3962         0.610734   
     21. B(C  19,C  14)                  1.3994         0.603481   
     22. B(H  20,C   2)                  1.0986         0.348965   
     23. B(H  21,C   2)                  1.0943         0.354408   
     24. B(H  22,C   2)                  1.0975         0.350320   
     25. B(H  23,O   4)                  0.9760         0.490325   
     26. B(H  24,C   7)                  1.0859         0.365587   
     27. B(H  25,C   9)                  1.0925         0.356828   
     28. B(H  26,C  10)                  1.0896         0.360673   
     29. B(H  27,C  11)                  1.0910         0.358844   
     30. B(H  28,C  15)                  1.0841         0.367982   
     31. B(H  29,C  16)                  1.0871         0.363998   
     32. B(H  30,C  17)                  1.0856         0.365932   
     33. B(H  31,C  18)                  1.0875         0.363439   
     34. B(H  32,C  19)                  1.0875         0.363472   
     35. A(C   2,C   1,C   3)          108.8500         0.362562   
     36. A(C   3,C   1,C   6)          115.7801         0.362825   
     37. A(H   0,C   1,C   2)          107.4361         0.322146   
     38. A(H   0,C   1,C   3)          104.9651         0.321910   
     39. A(H   0,C   1,C   6)          108.2428         0.322371   
     40. A(C   2,C   1,C   6)          111.0918         0.363103   
     41. A(C   1,C   2,H  21)          111.9060         0.323253   
     42. A(H  20,C   2,H  22)          107.0761         0.288164   
     43. A(C   1,C   2,H  20)          110.6634         0.322434   
     44. A(H  20,C   2,H  21)          107.4386         0.288688   
     45. A(H  21,C   2,H  22)          108.1623         0.288863   
     46. A(C   1,C   2,H  22)          111.3822         0.322639   
     47. A(O   4,C   3,O   5)          120.8966         0.473374   
     48. A(C   1,C   3,O   5)          124.3116         0.430653   
     49. A(C   1,C   3,O   4)          114.7060         0.396456   
     50. A(C   3,O   4,H  23)          114.5142         0.369047   
     51. A(C   7,C   6,C  11)          117.9587         0.426106   
     52. A(C   1,C   6,C  11)          122.1966         0.394389   
     53. A(C   1,C   6,C   7)          119.8030         0.391862   
     54. A(C   8,C   7,H  24)          119.4229         0.349197   
     55. A(C   6,C   7,C   8)          120.8804         0.422727   
     56. A(C   6,C   7,H  24)          119.6956         0.349656   
     57. A(C   7,C   8,C   9)          119.7358         0.428555   
     58. A(C   9,C   8,C  12)          117.8038         0.407458   
     59. A(C   7,C   8,C  12)          122.4586         0.401440   
     60. A(C   8,C   9,C  10)          119.8530         0.433983   
     61. A(C  10,C   9,H  25)          119.9126         0.351910   
     62. A(C   8,C   9,H  25)          120.2328         0.352756   
     63. A(C   9,C  10,H  26)          119.3514         0.352548   
     64. A(C  11,C  10,H  26)          120.2674         0.351410   
     65. A(C   9,C  10,C  11)          120.3812         0.431391   
     66. A(C  10,C  11,H  27)          118.0327         0.351108   
     67. A(C   6,C  11,H  27)          120.8638         0.350726   
     68. A(C   6,C  11,C  10)          121.0977         0.429415   
     69. A(O  13,C  12,C  14)          119.3810         0.441888   
     70. A(C   8,C  12,C  14)          121.2169         0.382356   
     71. A(C   8,C  12,O  13)          119.3378         0.441494   
     72. A(C  15,C  14,C  19)          119.6188         0.429252   
     73. A(C  12,C  14,C  19)          118.7933         0.405400   
     74. A(C  12,C  14,C  15)          121.5231         0.404823   
     75. A(C  14,C  15,C  16)          120.1635         0.430630   
     76. A(C  16,C  15,H  28)          118.3933         0.353657   
     77. A(C  14,C  15,H  28)          121.4294         0.352109   
     78. A(C  15,C  16,C  17)          119.9784         0.432739   
     79. A(C  17,C  16,H  29)          120.0548         0.353082   
     80. A(C  15,C  16,H  29)          119.9592         0.353006   
     81. A(C  16,C  17,C  18)          120.0982         0.432799   
     82. A(C  18,C  17,H  30)          120.0382         0.353369   
     83. A(C  16,C  17,H  30)          119.8558         0.353399   
     84. A(C  17,C  18,C  19)          120.1247         0.432241   
     85. A(C  19,C  18,H  31)          119.9668         0.352561   
     86. A(C  17,C  18,H  31)          119.9071         0.352960   
     87. A(C  14,C  19,C  18)          119.9950         0.430796   
     88. A(C  18,C  19,H  32)          119.6859         0.352566   
     89. A(C  14,C  19,H  32)          120.3170         0.351855   
     90. D(H  21,C   2,C   1,C   6)     59.5759         0.011057   
     91. D(H  21,C   2,C   1,H   0)    -58.6416         0.011057   
     92. D(H  20,C   2,C   1,H   0)     61.1514         0.011057   
     93. D(H  21,C   2,C   1,C   3)   -171.7974         0.011057   
     94. D(H  20,C   2,C   1,C   6)    179.3689         0.011057   
     95. D(H  20,C   2,C   1,C   3)    -52.0044         0.011057   
     96. D(O   4,C   3,C   1,C   2)    179.9699         0.010271   
     97. D(O   4,C   3,C   1,C   6)    -54.0729         0.010271   
     98. D(O   4,C   3,C   1,H   0)     65.1988         0.010271   
     99. D(O   5,C   3,C   1,C   2)      3.3220         0.010271   
    100. D(O   5,C   3,C   1,H   0)   -111.4491         0.010271   
    101. D(H  23,O   4,C   3,C   1)      3.3294         0.030862   
    102. D(H  23,O   4,C   3,O   5)   -179.8972         0.030862   
    103. D(C   7,C   6,C   1,H   0)     26.6289         0.010439   
    104. D(C   7,C   6,C   1,C   2)    -91.0998         0.010439   
    105. D(C   7,C   6,C   1,C   3)    144.0901         0.010439   
    106. D(C  11,C   6,C   1,C   2)     86.5028         0.010439   
    107. D(C  11,C   6,C   1,H   0)   -155.7685         0.010439   
    108. D(H  24,C   7,C   6,C  11)   -177.1388         0.022957   
    109. D(C   8,C   7,C   6,C  11)      2.4781         0.022957   
    110. D(H  24,C   7,C   6,C   1)      0.5645         0.022957   
    111. D(C   8,C   7,C   6,C   1)   -179.8186         0.022957   
    112. D(C  12,C   8,C   7,H  24)     -4.6825         0.022586   
    113. D(C  12,C   8,C   7,C   6)    175.6996         0.022586   
    114. D(C   9,C   8,C   7,H  24)    175.8230         0.022586   
    115. D(C   9,C   8,C   7,C   6)     -3.7949         0.022586   
    116. D(H  25,C   9,C   8,C  12)      2.7105         0.026973   
    117. D(H  25,C   9,C   8,C   7)   -177.7717         0.026973   
    118. D(C  10,C   9,C   8,C  12)   -176.8273         0.026973   
    119. D(C  10,C   9,C   8,C   7)      2.6905         0.026973   
    120. D(C  11,C  10,C   9,C   8)     -0.3660         0.026173   
    121. D(H  26,C  10,C   9,H  25)      0.0378         0.026173   
    122. D(H  26,C  10,C   9,C   8)    179.5771         0.026173   
    123. D(C  11,C  10,C   9,H  25)   -179.9052         0.026173   
    124. D(H  27,C  11,C  10,H  26)     -0.0066         0.025135   
    125. D(H  27,C  11,C  10,C   9)    179.9359         0.025135   
    126. D(C   6,C  11,C  10,H  26)    179.1205         0.025135   
    127. D(C   6,C  11,C  10,C   9)     -0.9369         0.025135   
    128. D(H  27,C  11,C   6,C   7)    178.9778         0.024796   
    129. D(C  10,C  11,C   6,C   7)     -0.1246         0.024796   
    130. D(C  10,C  11,C   6,C   1)   -177.7695         0.024796   
    131. D(H  27,C  11,C   6,C   1)      1.3330         0.024796   
    132. D(C  14,C  12,C   8,C   9)    142.1724         0.012752   
    133. D(C  14,C  12,C   8,C   7)    -37.3313         0.012752   
    134. D(O  13,C  12,C   8,C   9)    -34.8944         0.012752   
    135. D(O  13,C  12,C   8,C   7)    145.6018         0.012752   
    136. D(C  19,C  14,C  12,O  13)    -25.9545         0.012874   
    137. D(C  19,C  14,C  12,C   8)    156.9799         0.012874   
    138. D(C  15,C  14,C  12,O  13)    151.1069         0.012874   
    139. D(C  15,C  14,C  12,C   8)    -25.9587         0.012874   
    140. D(H  28,C  15,C  14,C  19)    176.8261         0.024699   
    141. D(H  28,C  15,C  14,C  12)     -0.2115         0.024699   
    142. D(C  16,C  15,C  14,C  19)     -1.7982         0.024699   
    143. D(C  16,C  15,C  14,C  12)   -178.8359         0.024699   
    144. D(H  29,C  16,C  15,H  28)      1.4704         0.026089   
    145. D(H  29,C  16,C  15,C  14)   -179.8639         0.026089   
    146. D(C  17,C  16,C  15,H  28)   -177.5290         0.026089   
    147. D(C  17,C  16,C  15,C  14)      1.1367         0.026089   
    148. D(H  30,C  17,C  16,H  29)     -0.0390         0.026159   
    149. D(H  30,C  17,C  16,C  15)    178.9594         0.026159   
    150. D(C  18,C  17,C  16,H  29)   -179.0246         0.026159   
    151. D(C  18,C  17,C  16,C  15)     -0.0262         0.026159   
    152. D(C  19,C  18,C  17,C  16)     -0.4151         0.026132   
    153. D(H  31,C  18,C  17,H  30)      0.1612         0.026132   
    154. D(H  31,C  18,C  17,C  16)    179.1449         0.026132   
    155. D(C  19,C  18,C  17,H  30)   -179.3989         0.026132   
    156. D(H  32,C  19,C  18,H  31)     -0.3425         0.025764   
    157. D(H  32,C  19,C  18,C  17)    179.2173         0.025764   
    158. D(C  14,C  19,C  18,H  31)   -179.8147         0.025764   
    159. D(C  14,C  19,C  18,C  17)     -0.2549         0.025764   
    160. D(H  32,C  19,C  14,C  15)   -178.1135         0.025122   
    161. D(H  32,C  19,C  14,C  12)     -0.9949         0.025122   
    162. D(C  18,C  19,C  14,C  15)      1.3553         0.025122   
    163. D(C  18,C  19,C  14,C  12)    178.4739         0.025122   
    -----------------------------------------------------------------

Number of atoms                         .... 33
Number of degrees of freedom            .... 163


         *************************************************************
         *                GEOMETRY OPTIMIZATION CYCLE   1            *
         *************************************************************
---------------------------------
CARTESIAN COORDINATES (ANGSTROEM)
---------------------------------
  H      2.196820   -0.911540    0.640440
  C      2.082740   -0.072300   -0.061510
  C      0.617810    0.370390   -0.013130
  C      2.957330    1.046610    0.514000
  O      4.280940    0.777800    0.528310
  O      2.522150    2.086910    0.989660
  C      2.463940   -0.562300   -1.459860
  C      2.327060   -1.928420   -1.785840
  C      2.675940   -2.406380   -3.069240
  C      3.085580   -1.510930   -4.050730
  C      3.203790   -0.155250   -3.747610
  C      2.905090    0.311300   -2.462550
  C      2.634550   -3.853770   -3.422270
  O      2.317120   -4.186580   -4.561160
  C      3.032820   -4.899460   -2.439830
  C      3.931400   -4.623860   -1.400020
  C      4.303560   -5.631040   -0.510100
  C      3.799730   -6.921430   -0.668080
  C      2.923490   -7.206720   -1.714550
  C      2.540880   -6.199460   -2.602470
  H      0.348650    0.710150    0.996290
  H     -0.063730   -0.443910   -0.277690
  H      0.430420    1.208850   -0.696040
  H      4.525170   -0.075950    0.123360
  H      1.942960   -2.622530   -1.044340
  H      3.322250   -1.867050   -5.056060
  H      3.532160    0.538300   -4.521120
  H      3.011820    1.379290   -2.267150
  H      4.369910   -3.639970   -1.277730
  H      4.999000   -5.413070    0.296480
  H      4.103960   -7.707870    0.015690
  H      2.543310   -8.217440   -1.843150
  H      1.867200   -6.432720   -3.423640

----------------------------
CARTESIAN COORDINATES (A.U.)
----------------------------
  NO LB      ZA    FRAG     MASS         X           Y           Z
   0 H     1.0000    0     1.008    4.151388   -1.722561    1.210256
   1 C     6.0000    0    12.011    3.935808   -0.136627   -0.116237
   2 C     6.0000    0    12.011    1.167492    0.699936   -0.024812
   3 C     6.0000    0    12.011    5.588544    1.977806    0.971319
   4 O     8.0000    0    15.999    8.089804    1.469829    0.998361
   5 O     8.0000    0    15.999    4.766173    3.943688    1.870186
   6 C     6.0000    0    12.011    4.656172   -1.062593   -2.758736
   7 C     6.0000    0    12.011    4.397506   -3.644186   -3.374749
   8 C     6.0000    0    12.011    5.056794   -4.547399   -5.800023
   9 C     6.0000    0    12.011    5.830901   -2.855244   -7.654770
  10 C     6.0000    0    12.011    6.054286   -0.293380   -7.081957
  11 C     6.0000    0    12.011    5.489824    0.588272   -4.653545
  12 C     6.0000    0    12.011    4.978578   -7.282570   -6.467153
  13 O     8.0000    0    15.999    4.378722   -7.911490   -8.619343
  14 C     6.0000    0    12.011    5.731199   -9.258638   -4.610611
  15 C     6.0000    0    12.011    7.429269   -8.737829   -2.645654
  16 C     6.0000    0    12.011    8.132550  -10.641123   -0.963949
  17 C     6.0000    0    12.011    7.180449  -13.079607   -1.262488
  18 C     6.0000    0    12.011    5.524595  -13.618727   -3.240030
  19 C     6.0000    0    12.011    4.801567  -11.715282   -4.917956
  20 H     1.0000    0     1.008    0.658853    1.341989    1.882715
  21 H     1.0000    0     1.008   -0.120432   -0.838868   -0.524758
  22 H     1.0000    0     1.008    0.813376    2.284395   -1.315325
  23 H     1.0000    0     1.008    8.551332   -0.143525    0.233117
  24 H     1.0000    0     1.008    3.671662   -4.955863   -1.973517
  25 H     1.0000    0     1.008    6.278143   -3.528213   -9.554569
  26 H     1.0000    0     1.008    6.674815    1.017240   -8.543679
  27 H     1.0000    0     1.008    5.691515    2.606480   -4.284293
  28 H     1.0000    0     1.008    8.257933   -6.878546   -2.414560
  29 H     1.0000    0     1.008    9.446741  -10.229220    0.560266
  30 H     1.0000    0     1.008    7.755360  -14.565763    0.029650
  31 H     1.0000    0     1.008    4.806159  -15.528711   -3.483049
  32 H     1.0000    0     1.008    3.528497  -12.156079   -6.469742

--------------------------------
INTERNAL COORDINATES (ANGSTROEM)
--------------------------------
 H      0   0   0     0.000000000000     0.00000000     0.00000000
 C      1   0   0     1.100032647925     0.00000000     0.00000000
 C      2   1   0     1.531122126220   107.43609156     0.00000000
 C      2   1   3     1.532344287783   104.96512040   115.75297780
 O      4   2   1     1.350706120627   114.70604480    65.19879141
 O      4   2   1     1.223870155695   124.31160293   248.55087537
 C      2   1   3     1.529966065800   108.24276798   239.95517453
 C      7   2   1     1.411128253987   119.80300502    26.62889159
 C      8   7   2     1.413251066159   120.88039706   180.18135158
 C      9   8   7     1.390308689536   119.73577991   356.20510088
 C     10   9   8     1.394174881749   119.85304095     2.69047383
 C     11  10   9     1.399381933605   120.38118030   359.63404766
 C      9   8   7     1.490396298003   122.45861853   175.69959887
 O     13   9   8     1.228248644656   119.33784514   145.60180200
 C     13   9   8     1.489051685671   121.21692114   322.66865420
 C     15  13   9     1.401644110500   121.52314414   334.04126947
 C     16  15  13     1.394586757574   120.16351965   181.16412167
 C     17  16  15     1.394241263699   119.97839134     1.13669734
 C     18  17  16     1.394376700393   120.09819136   359.97380508
 C     19  18  17     1.396196635901   120.12468132   359.58487698
 H      3   2   1     1.098550271767   110.66340032    61.15136141
 H      3   2   1     1.094336902055   111.90596387   301.35835559
 H      3   2   1     1.097495445002   111.38217076   180.14364358
 H      5   4   2     0.975972262874   114.51418183     3.32935275
 H      8   7   2     1.085883857556   119.69556953     0.56445905
 H     10   9   8     1.092484577557   120.23277559   182.22826436
 H     11  10   9     1.089566968800   119.35136251   179.57711042
 H     12  11  10     1.090951462257   118.03268325   179.93591391
 H     16  15  13     1.084105804938   121.42936952   359.78850876
 H     17  16  15     1.087069000064   119.95923000   180.13608655
 H     18  17  16     1.085626629832   119.85583791   178.95939507
 H     19  18  17     1.087487798001   119.90708708   179.14491371
 H     20  19  18     1.087462706901   119.68591544   179.21726704

---------------------------
INTERNAL COORDINATES (A.U.)
---------------------------
 H      0   0   0     0.000000000000     0.00000000     0.00000000
 C      1   0   0     2.078760442950     0.00000000     0.00000000
 C      2   1   0     2.893401496143   107.43609156     0.00000000
 C      2   1   3     2.895711046788   104.96512040   115.75297780
 O      4   2   1     2.552464655397   114.70604480    65.19879141
 O      4   2   1     2.312779417742   124.31160293   248.55087537
 C      2   1   3     2.891216858555   108.24276798   239.95517453
 C      7   2   1     2.666645939874   119.80300502    26.62889159
 C      8   7   2     2.670657473513   120.88039706   180.18135158
 C      9   8   7     2.627302664834   119.73577991   356.20510088
 C     10   9   8     2.634608709298   119.85304095     2.69047383
 C     11  10   9     2.644448611271   120.38118030   359.63404766
 C      9   8   7     2.816440834235   122.45861853   175.69959887
 O     13   9   8     2.321053562760   119.33784514   145.60180200
 C     13   9   8     2.813899885172   121.21692114   322.66865420
 C     15  13   9     2.648723506069   121.52314414   334.04126947
 C     16  15  13     2.635387041808   120.16351965   181.16412167
 C     17  16  15     2.634734153003   119.97839134     1.13669734
 C     18  17  16     2.634990091264   120.09819136   359.97380508
 C     19  18  17     2.638429270954   120.12468132   359.58487698
 H      3   2   1     2.075959157985   110.66340032    61.15136141
 H      3   2   1     2.067997043128   111.90596387   301.35835559
 H      3   2   1     2.073965824280   111.38217076   180.14364358
 H      5   4   2     1.844320291136   114.51418183     3.32935275
 H      8   7   2     2.052023104026   119.69556953     0.56445905
 H     10   9   8     2.064496657115   120.23277559   182.22826436
 H     11  10   9     2.058983175599   119.35136251   179.57711042
 H     12  11  10     2.061599489066   118.03268325   179.93591391
 H     16  15  13     2.048663071527   121.42936952   359.78850876
 H     17  16  15     2.054262698796   119.95923000   180.13608655
 H     18  17  16     2.051537014074   119.85583791   178.95939507
 H     19  18  17     2.055054112202   119.90708708   179.14491371
 H     20  19  18     2.055006696895   119.68591544   179.21726704

---------------------
BASIS SET INFORMATION
---------------------
There are 3 groups of distinct atoms

 Group   1 Type H   : 5s1p contracted to 3s1p pattern {311/1}
 Group   2 Type C   : 11s6p2d1f contracted to 5s3p2d1f pattern {62111/411/11/1}
 Group   3 Type O   : 11s6p2d1f contracted to 5s3p2d1f pattern {62111/411/11/1}

Atom   0H    basis set group =>   1
Atom   1C    basis set group =>   2
Atom   2C    basis set group =>   2
Atom   3C    basis set group =>   2
Atom   4O    basis set group =>   3
Atom   5O    basis set group =>   3
Atom   6C    basis set group =>   2
Atom   7C    basis set group =>   2
Atom   8C    basis set group =>   2
Atom   9C    basis set group =>   2
Atom  10C    basis set group =>   2
Atom  11C    basis set group =>   2
Atom  12C    basis set group =>   2
Atom  13O    basis set group =>   3
Atom  14C    basis set group =>   2
Atom  15C    basis set group =>   2
Atom  16C    basis set group =>   2
Atom  17C    basis set group =>   2
Atom  18C    basis set group =>   2
Atom  19C    basis set group =>   2
Atom  20H    basis set group =>   1
Atom  21H    basis set group =>   1
Atom  22H    basis set group =>   1
Atom  23H    basis set group =>   1
Atom  24H    basis set group =>   1
Atom  25H    basis set group =>   1
Atom  26H    basis set group =>   1
Atom  27H    basis set group =>   1
Atom  28H    basis set group =>   1
Atom  29H    basis set group =>   1
Atom  30H    basis set group =>   1
Atom  31H    basis set group =>   1
Atom  32H    basis set group =>   1
---------------------------------
AUXILIARY/J BASIS SET INFORMATION
---------------------------------
There are 3 groups of distinct atoms

 Group   1 Type H   : 5s2p1d contracted to 3s1p1d pattern {311/2/1}
 Group   2 Type C   : 12s5p4d2f1g contracted to 6s4p3d1f1g pattern {711111/2111/211/2/1}
 Group   3 Type O   : 12s5p4d2f1g contracted to 6s4p3d1f1g pattern {711111/2111/211/2/1}

Atom   0H    basis set group =>   1
Atom   1C    basis set group =>   2
Atom   2C    basis set group =>   2
Atom   3C    basis set group =>   2
Atom   4O    basis set group =>   3
Atom   5O    basis set group =>   3
Atom   6C    basis set group =>   2
Atom   7C    basis set group =>   2
Atom   8C    basis set group =>   2
Atom   9C    basis set group =>   2
Atom  10C    basis set group =>   2
Atom  11C    basis set group =>   2
Atom  12C    basis set group =>   2
Atom  13O    basis set group =>   3
Atom  14C    basis set group =>   2
Atom  15C    basis set group =>   2
Atom  16C    basis set group =>   2
Atom  17C    basis set group =>   2
Atom  18C    basis set group =>   2
Atom  19C    basis set group =>   2
Atom  20H    basis set group =>   1
Atom  21H    basis set group =>   1
Atom  22H    basis set group =>   1
Atom  23H    basis set group =>   1
Atom  24H    basis set group =>   1
Atom  25H    basis set group =>   1
Atom  26H    basis set group =>   1
Atom  27H    basis set group =>   1
Atom  28H    basis set group =>   1
Atom  29H    basis set group =>   1
Atom  30H    basis set group =>   1
Atom  31H    basis set group =>   1
Atom  32H    basis set group =>   1
------------------------------------------------------------------------------
                             ORCA STARTUP CALCULATIONS
                           -- RI-GTO INTEGRALS CHOSEN --
------------------------------------------------------------------------------
------------------------------------------------------------------------------
                   ___                                                        
                  /   \      - P O W E R E D   B Y -                         
                 /     \                                                     
                 |  |  |   _    _      __       _____    __    __             
                 |  |  |  | |  | |    /  \     |  _  \  |  |  /  |          
                  \  \/   | |  | |   /    \    | | | |  |  | /  /          
                 / \  \   | |__| |  /  /\  \   | |_| |  |  |/  /          
                |  |  |   |  __  | /  /__\  \  |    /   |      \           
                |  |  |   | |  | | |   __   |  |    \   |  |\   \          
                \     /   | |  | | |  |  |  |  | |\  \  |  | \   \       
                 \___/    |_|  |_| |__|  |__|  |_| \__\ |__|  \__/        
                                                                              
                      - O R C A' S   B I G   F R I E N D -                    
                                      &                                       
                       - I N T E G R A L  F E E D E R -                       
                                                                              
 v1 FN, 2020, v2 2021, v3 2022-2024                                           
------------------------------------------------------------------------------


----------------------
SHARK INTEGRAL PACKAGE
----------------------

Number of atoms                             ...     33
Number of basis functions                   ...    673
Number of shells                            ...    265
Maximum angular momentum                    ...      3
Integral batch strategy                     ... SHARK/LIBINT Hybrid
RI-J (if used) integral strategy            ... SPLIT-RIJ (Revised 2003 algorithm where possible)
Printlevel                                  ...      1
Contraction scheme used                     ... SEGMENTED contraction
Prescreening option                         ... SCHWARTZ
   Thresh                                   ... 2.500e-11
   Tcut                                     ... 2.500e-12
   Tpresel                                  ... 2.500e-12 
Coulomb Range Separation                    ... NOT USED
Exchange Range Separation                   ... NOT USED
Multipole approximations                    ... NOT USED
Finite Nucleus Model                        ... NOT USED
CABS basis                                  ... NOT available
Auxiliary Coulomb fitting basis             ... AVAILABLE
   # of basis functions in Aux-J            ...   1085
   # of shells in Aux-J                     ...    355
   Maximum angular momentum in Aux-J        ...      4
Auxiliary J/K fitting basis                 ... NOT available
Auxiliary Correlation fitting basis         ... NOT available
Auxiliary 'external' fitting basis          ... NOT available

Checking pre-screening integrals            ... done (  0.0 sec) Dimension = 265
Check shell pair data                       ... done (  0.0 sec)
Shell pair information
Shell pair cut-off parameter TPreSel        ...   2.5e-12
Total number of shell pairs                 ...     35245
Shell pairs after pre-screening             ...     25612
Total number of primitive shell pairs       ...    108340
Primitive shell pairs kept                  ...     53283
          la=0 lb=0:   6632 shell pairs
          la=1 lb=0:   7375 shell pairs
          la=1 lb=1:   2070 shell pairs
          la=2 lb=0:   3661 shell pairs
          la=2 lb=1:   2043 shell pairs
          la=2 lb=2:    522 shell pairs
          la=3 lb=0:   1724 shell pairs
          la=3 lb=1:    982 shell pairs
          la=3 lb=2:    483 shell pairs
          la=3 lb=3:    120 shell pairs

Calculating one electron integrals          ... done (  0.1 sec)
Calculating RI/J V-Matrix + Cholesky decomp.... done (  0.0 sec)
Calculating Nuclear repulsion               ... done (  0.0 sec) ENN=   1307.795155383169 Eh

Diagonalization of the overlap matrix:
Smallest eigenvalue                        ... 6.976e-06
Time for diagonalization                   ...    0.032 sec
Threshold for overlap eigenvalues          ... 1.000e-07
Number of eigenvalues below threshold      ... 0
Time for construction of square roots      ...    0.024 sec
Total time needed                          ...    0.057 sec

-------------------
DFT GRID GENERATION
-------------------

General Integration Accuracy     IntAcc      ... 4.388
Radial Grid Type                 RadialGrid  ... OptM3 with GC (2021)
Angular Grid (max. ang.)         AngularGrid ... 4 (Lebedev-302)
Angular grid pruning method      GridPruning ... 4 (adaptive)
Weight generation scheme         WeightScheme... mBecke (2022)
Basis function cutoff            BFCut       ... 1.0000e-11
Integration weight cutoff        WCut        ... 1.0000e-14
Partially contracted basis set               ... off
Rotationally invariant grid construction     ... off
Angular grids for H and He will be reduced by one unit

Total number of grid points                  ...   158492
Total number of batches                      ...     2493
Average number of points per batch           ...       63
Average number of grid points per atom       ...     4803
Initializing property integral containers    ... done (  0.0 sec)

SHARK setup successfully completed in   1.6 seconds

Maximum memory used throughout the entire STARTUP-calculation: 114.1 MB
-------------------------------------------------------------------------------
                                 ORCA GUESS
                   Start orbitals & Density for SCF / CASSCF
-------------------------------------------------------------------------------

------------
SCF SETTINGS
------------
Hamiltonian:
 Density Functional     Method          .... DFT(GTOs)
 Exchange Functional    Exchange        .... TPSS
 Correlation Functional Correlation     .... TPSS
 LDA part of GGA corr.  LDAOpt          .... PW91-LDA
 Gradients option       PostSCFGGA      .... off
   NL short-range parameter             ....  5.000000
 RI-approximation to the Coulomb term is turned on
   Number of AuxJ basis functions       .... 1085


General Settings:
 Integral files         IntName         .... Dexketoprofen\Dexketoprofen_TPSS_def2-TZVP\Dexketoprofen_TPSS_def2-TZVP.orcainp
 Hartree-Fock type      HFTyp           .... RHF
 Total Charge           Charge          ....    0
 Multiplicity           Mult            ....    1
 Number of Electrons    NEL             ....  134
 Basis Dimension        Dim             ....  673
 Nuclear Repulsion      ENuc            ....   1307.7951553832 Eh

Convergence Acceleration:
 AO-DIIS                CNVDIIS         .... on
   Start iteration      DIISMaxIt       ....    12
   Startup error        DIISStart       ....  0.200000
   # of expansion vecs  DIISMaxEq       ....     5
   Bias factor          DIISBfac        ....   1.050
   Max. coefficient     DIISMaxC        ....  10.000
 MO-DIIS                CNVKDIIS        .... off
 Trust-Rad. Augm. Hess. CNVTRAH         .... auto
   Auto Start mean grad. ratio tolernc. ....  1.125000
   Auto Start start iteration           ....    50
   Auto Start num. interpolation iter.  ....    10
   Max. Number of Micro iterations      ....    24
   Max. Number of Macro iterations      .... Maxiter - #DIIS iter
   Number of Davidson start vectors     ....     2
   Converg. threshold    (grad. norm)   ....   1.000e-05
   Grad. Scal. Fac. for Micro threshold ....   0.100
   Minimum threshold for Micro iter.    ....   1.000e-02
   NR start threshold (gradient norm)   ....   1.000e-04
   Initial trust radius                 ....   0.400
   Minimum AH scaling param. (alpha)    ....   1.000
   Maximum AH scaling param. (alpha)    .... 1000.000
   Quad. conv. algorithm                .... NR
   White noise on init. David. guess    .... on
   Maximum white noise                  ....   0.010
   Pseudo random numbers                .... off
   Inactive MOs                         .... canonical
   Orbital update algorithm             .... Taylor
   Preconditioner                       .... Diag
   Full preconditioner red. dimension   ....   250
 SOSCF                  CNVSOSCF        .... on
   Start iteration      SOSCFMaxIt      ....   150
   Startup grad/error   SOSCFStart      ....  0.003300
   Hessian update       SOSCFHessUp     .... L-BFGS
 Level Shifting         CNVShift        .... on
   Level shift para.    LevelShift      ....    0.2500
   Turn off err/grad.   ShiftErr        ....    0.0010
 Zerner damping         CNVZerner       .... off
 Static damping         CNVDamp         .... on
   Fraction old density DampFac         ....    0.7000
   Max. Damping (<1)    DampMax         ....    0.9800
   Min. Damping (>=0)   DampMin         ....    0.0000
   Turn off err/grad.   DampErr         ....    0.1000

SCF Procedure:
 Maximum # iterations   MaxIter         ....   125
 SCF integral mode      SCFMode         .... Direct
   Integral package                     .... SHARK and LIBINT hybrid scheme
 Reset frequency        DirectResetFreq ....    20
 Integral Threshold     Thresh          ....  2.500e-11 Eh
 Primitive CutOff       TCut            ....  2.500e-12 Eh

Convergence Tolerance:
 Convergence Check Mode ConvCheckMode   .... Total+1el-Energy
 Convergence forced     ConvForced      .... 0
 Energy Change          TolE            ....  1.000e-08 Eh
 1-El. energy change                    ....  1.000e-05 Eh
 Orbital Gradient       TolG            ....  1.000e-05
 Orbital Rotation angle TolX            ....  1.000e-05
 DIIS Error             TolErr          ....  5.000e-07

------------------------------
INITIAL GUESS: MODEL POTENTIAL
------------------------------
Loading Hartree-Fock densities                     ... done
Calculating cut-offs                               ... done
Initializing the effective Hamiltonian             ... done
Setting up the integral package (SHARK)            ... done
Starting the Coulomb interaction                   ... done (   0.8 sec)
Making the grid                                    ... done (   0.3 sec)
Mapping shells                                     ... done
Starting the XC term evaluation                    ... done (   1.0 sec)
  promolecular density results
     # of electrons  =    133.999313706
     EX              =   -110.371157789
     EC              =     -4.475780849
     EX+EC           =   -114.846938638
Transforming the Hamiltonian                       ... done (   0.0 sec)
Diagonalizing the Hamiltonian                      ... done (   0.0 sec)
Back transforming the eigenvectors                 ... done (   0.0 sec)
Now organizing SCF variables                       ... done
                      ------------------
                      INITIAL GUESS DONE (   2.3 sec)
                      ------------------
             **** ENERGY FILE WAS UPDATED (Dexketoprofen\Dexketoprofen_TPSS_def2-TZVP\Dexketoprofen_TPSS_def2-TZVP.orcainp.en.tmp) ****
Finished Guess after   2.4 sec
Maximum memory used throughout the entire GUESS-calculation: 84.1 MB

-------------------------------------------------------------------------------------------
                                      ORCA LEAN-SCF
                              memory conserving SCF solver
-------------------------------------------------------------------------------------------

--------------------
CPCM SOLVATION MODEL
--------------------
CPCM parameters:
  Epsilon                                         ...      80.1510
  Refrac                                          ...       1.3328
  Rsolv                                           ...       1.3000
  Surface type                                    ... GAUSSIAN VDW
  Discretization scheme                           ... Constant charge density
    Threshold for H atoms                         ...       5.0000 (charges/Ang^2)
    Threshold for non-H atoms                     ...       5.0000 (charges/Ang^2)
  Epsilon function type                           ...         CPCM
Solvent:                                          ... WATER
Radii:
  Scheme                                          ... Element-dependent radii
  Radius for H  used is    2.4944 Bohr (=   1.3200 Ang.)
  Radius for C  used is    3.8550 Bohr (=   2.0400 Ang.)
  Radius for O  used is    3.4469 Bohr (=   1.8240 Ang.)
Calculating surface                               ...        done! (  0.0s)
Cavity surface points                             ...         2978
Cavity Volume                                     ...    2094.2618
Cavity Surface-area                               ...    1087.9373
Calculating surface distance matrix               ...        done! (  0.0s)
Performing Cholesky decomposition & store         ...        done! (  0.2s)
Overall time for CPCM initialization              ...                 0.2s

----------------------------------------D-I-I-S--------------------------------------------
Iteration    Energy (Eh)           Delta-E    RMSDP     MaxDP     DIISErr   Damp  Time(sec)
-------------------------------------------------------------------------------------------
               ***  Starting incremental Fock matrix formation  ***
    1    -843.8569587993147252     0.00e+00  1.62e-03  2.38e-01  2.66e-01  0.700  11.4
    2    -844.0710080429821573    -2.14e-01  1.29e-03  1.94e-01  8.47e-02  0.700   9.9
                               ***Turning on AO-DIIS***
    3    -844.1428449875743354    -7.18e-02  4.80e-04  2.91e-02  2.70e-02  0.700   9.5
    4    -844.1897741950442651    -4.69e-02  8.38e-04  6.36e-02  1.42e-02  0.000   9.1
    5    -844.2945617059658616    -1.05e-01  3.41e-04  4.83e-02  5.36e-03  0.000   9.3
                              *** Initializing SOSCF ***
---------------------------------------S-O-S-C-F--------------------------------------
Iteration    Energy (Eh)           Delta-E    RMSDP     MaxDP     MaxGrad    Time(sec)
--------------------------------------------------------------------------------------
    6    -844.2953732691453297    -8.12e-04  1.08e-04  1.20e-02  2.71e-03     8.7
               *** Restarting incremental Fock matrix formation ***
    7    -844.2954186905017195    -4.54e-05  1.00e-04  9.67e-03  7.24e-04    11.1
    8    -844.2953545071845838     6.42e-05  4.47e-05  4.18e-03  1.98e-03     7.8
    9    -844.2954330311854392    -7.85e-05  1.01e-05  6.83e-04  8.84e-05     7.5
   10    -844.2954311007902106     1.93e-06  5.38e-06  5.97e-04  1.92e-04     7.3
   11    -844.2954335843537592    -2.48e-06  3.12e-06  2.54e-04  1.64e-05     7.1
   12    -844.2954335149538565     6.94e-08  1.28e-06  1.30e-04  3.42e-05     6.7
   13    -844.2954336007342135    -8.58e-08  1.41e-06  1.94e-04  6.46e-06     6.5
   14    -844.2954335926301610     8.10e-09  8.19e-07  8.26e-05  1.37e-05     6.4
                 **** Energy Check signals convergence ****

               *****************************************************
               *                     SUCCESS                       *
               *           SCF CONVERGED AFTER  14 CYCLES          *
               *****************************************************

             **** ENERGY FILE WAS UPDATED (Dexketoprofen\Dexketoprofen_TPSS_def2-TZVP\Dexketoprofen_TPSS_def2-TZVP.orcainp.en.tmp) ****

----------------
TOTAL SCF ENERGY
----------------

Total Energy       :       -844.29543359263016 Eh          -22974.44675 eV

Components:
Nuclear Repulsion  :       1307.79515538316900 Eh           35586.91538 eV
Electronic Energy  :      -2152.06106608168375 Eh          -58560.55877 eV
One Electron Energy:      -3742.18925895051507 Eh         -101830.14668 eV
Two Electron Energy:       1590.12819286883155 Eh           43269.58791 eV
CPCM Dielectric    :         -0.02952289411573 Eh              -0.80336 eV

Virial components:
Potential Energy   :      -1684.76930093754186 Eh          -45844.90339 eV
Kinetic Energy     :        840.47386734491170 Eh           22870.45664 eV
Virial Ratio       :          2.00454691858510

DFT components:
N(Alpha)           :       67.000025622565 electrons
N(Beta)            :       67.000025622565 electrons
N(Total)           :      134.000051245130 electrons
E(X)               :     -113.622462525252 Eh       
E(C)               :       -4.490651072103 Eh       
E(XC)              :     -118.113113597356 Eh       

CPCM Solvation Model Properties:
Surface-charge          :         -0.02943178263969
Corrected charge        :         -0.00000000000000
Outlying charge corr.   :          0.00004802455577 Eh               0.00131 eV
Free-energy (cav+disp)  :  This term is not implemented in the current solvation scheme

---------------
SCF CONVERGENCE
---------------

  Last Energy change         ...   -8.1041e-09  Tolerance :   1.0000e-08
  Last MAX-Density change    ...    8.2589e-05  Tolerance :   1.0000e-07
  Last RMS-Density change    ...    8.1945e-07  Tolerance :   5.0000e-09
  Last DIIS Error            ...    2.7071e-03  Tolerance :   5.0000e-07
  Last Orbital Gradient      ...    1.3660e-05  Tolerance :   1.0000e-05
  Last Orbital Rotation      ...    1.6588e-05  Tolerance :   1.0000e-05


----------------
ORBITAL ENERGIES
----------------

  NO   OCC          E(Eh)            E(eV) 
   0   2.0000     -18.935840      -515.2704 
   1   2.0000     -18.882803      -513.8272 
   2   2.0000     -18.876522      -513.6563 
   3   2.0000     -10.122695      -275.4525 
   4   2.0000     -10.077230      -274.2154 
   5   2.0000     -10.018690      -272.6224 
   6   2.0000     -10.015777      -272.5431 
   7   2.0000     -10.007404      -272.3153 
   8   2.0000     -10.006685      -272.2957 
   9   2.0000     -10.005412      -272.2611 
  10   2.0000     -10.003239      -272.2020 
  11   2.0000     -10.001321      -272.1498 
  12   2.0000     -10.000218      -272.1198 
  13   2.0000     -10.000153      -272.1180 
  14   2.0000      -9.998931      -272.0847 
  15   2.0000      -9.998707      -272.0786 
  16   2.0000      -9.996508      -272.0188 
  17   2.0000      -9.996001      -272.0050 
  18   2.0000      -9.981454      -271.6092 
  19   2.0000      -1.035478       -28.1768 
  20   2.0000      -0.976529       -26.5727 
  21   2.0000      -0.957253       -26.0482 
  22   2.0000      -0.813685       -22.1415 
  23   2.0000      -0.805543       -21.9199 
  24   2.0000      -0.753556       -20.5053 
  25   2.0000      -0.722533       -19.6611 
  26   2.0000      -0.701699       -19.0942 
  27   2.0000      -0.697071       -18.9683 
  28   2.0000      -0.685237       -18.6463 
  29   2.0000      -0.612346       -16.6628 
  30   2.0000      -0.609143       -16.5756 
  31   2.0000      -0.574834       -15.6420 
  32   2.0000      -0.572920       -15.5900 
  33   2.0000      -0.564141       -15.3510 
  34   2.0000      -0.549465       -14.9517 
  35   2.0000      -0.516372       -14.0512 
  36   2.0000      -0.492010       -13.3883 
  37   2.0000      -0.467590       -12.7238 
  38   2.0000      -0.460774       -12.5383 
  39   2.0000      -0.437459       -11.9039 
  40   2.0000      -0.431147       -11.7321 
  41   2.0000      -0.421498       -11.4695 
  42   2.0000      -0.419200       -11.4070 
  43   2.0000      -0.412667       -11.2292 
  44   2.0000      -0.403131       -10.9698 
  45   2.0000      -0.395582       -10.7643 
  46   2.0000      -0.387780       -10.5520 
  47   2.0000      -0.386731       -10.5235 
  48   2.0000      -0.380931       -10.3657 
  49   2.0000      -0.380794       -10.3619 
  50   2.0000      -0.365605        -9.9486 
  51   2.0000      -0.358155        -9.7459 
  52   2.0000      -0.341119        -9.2823 
  53   2.0000      -0.335968        -9.1421 
  54   2.0000      -0.328899        -8.9498 
  55   2.0000      -0.321918        -8.7598 
  56   2.0000      -0.320305        -8.7160 
  57   2.0000      -0.318892        -8.6775 
  58   2.0000      -0.310805        -8.4574 
  59   2.0000      -0.305392        -8.3101 
  60   2.0000      -0.291930        -7.9438 
  61   2.0000      -0.251601        -6.8464 
  62   2.0000      -0.244648        -6.6572 
  63   2.0000      -0.243804        -6.6342 
  64   2.0000      -0.240556        -6.5459 
  65   2.0000      -0.235109        -6.3976 
  66   2.0000      -0.219713        -5.9787 
  67   0.0000      -0.100854        -2.7444 
  68   0.0000      -0.055553        -1.5117 
  69   0.0000      -0.051224        -1.3939 
  70   0.0000      -0.043192        -1.1753 
  71   0.0000      -0.039720        -1.0808 
  72   0.0000       0.006785         0.1846 
  73   0.0000       0.016640         0.4528 
  74   0.0000       0.046471         1.2645 
  75   0.0000       0.049483         1.3465 
  76   0.0000       0.057521         1.5652 
  77   0.0000       0.065529         1.7831 
*Only the first 10 virtual orbitals were printed.

                    ********************************
                    * MULLIKEN POPULATION ANALYSIS *
                    ********************************

-----------------------
MULLIKEN ATOMIC CHARGES
-----------------------
   0 H :    0.128534
   1 C :    0.021828
   2 C :   -0.409608
   3 C :    0.265977
   4 O :   -0.348134
   5 O :   -0.360355
   6 C :    0.098739
   7 C :   -0.377780
   8 C :    0.215831
   9 C :   -0.194897
  10 C :   -0.125861
  11 C :   -0.145820
  12 C :    0.229585
  13 O :   -0.371931
  14 C :    0.119939
  15 C :   -0.200556
  16 C :   -0.133849
  17 C :   -0.110876
  18 C :   -0.126467
  19 C :   -0.193714
  20 H :    0.133456
  21 H :    0.135977
  22 H :    0.129129
  23 H :    0.374789
  24 H :    0.141910
  25 H :    0.131467
  26 H :    0.139505
  27 H :    0.128788
  28 H :    0.157423
  29 H :    0.138891
  30 H :    0.140107
  31 H :    0.138487
  32 H :    0.129483
Sum of atomic charges:    0.0000000

--------------------------------
MULLIKEN REDUCED ORBITAL CHARGES
--------------------------------
  0 H s       :     0.850873  s :     0.850873
      pz      :     0.007324  p :     0.020593
      px      :     0.004462
      py      :     0.008807

  1 C s       :     3.069717  s :     3.069717
      pz      :     0.899794  p :     2.773718
      px      :     0.927780
      py      :     0.946144
      dz2     :     0.018287  d :     0.126640
      dxz     :     0.031191
      dyz     :     0.027938
      dx2y2   :     0.021431
      dxy     :     0.027794
      f0      :     0.001346  f :     0.008097
      f+1     :     0.000921
      f-1     :     0.001135
      f+2     :     0.001285
      f-2     :     0.000857
      f+3     :     0.001272
      f-3     :     0.001281

  2 C s       :     3.255155  s :     3.255155
      pz      :     1.082323  p :     3.085567
      px      :     0.939339
      py      :     1.063905
      dz2     :     0.008833  d :     0.064160
      dxz     :     0.014941
      dyz     :     0.011884
      dx2y2   :     0.009850
      dxy     :     0.018651
      f0      :     0.000749  f :     0.004726
      f+1     :     0.000447
      f-1     :     0.000605
      f+2     :     0.000676
      f-2     :     0.000375
      f+3     :     0.001110
      f-3     :     0.000763

  3 C s       :     3.092172  s :     3.092172
      pz      :     0.790931  p :     2.365779
      px      :     0.756658
      py      :     0.818191
      dz2     :     0.024574  d :     0.252660
      dxz     :     0.047601
      dyz     :     0.035525
      dx2y2   :     0.071691
      dxy     :     0.073268
      f0      :     0.001860  f :     0.023412
      f+1     :     0.001338
      f-1     :     0.002947
      f+2     :     0.004145
      f-2     :     0.002169
      f+3     :     0.004833
      f-3     :     0.006121

  4 O s       :     3.756313  s :     3.756313
      pz      :     1.686453  p :     4.560999
      px      :     1.395843
      py      :     1.478703
      dz2     :     0.003058  d :     0.029020
      dxz     :     0.005317
      dyz     :     0.004475
      dx2y2   :     0.011263
      dxy     :     0.004907
      f0      :     0.000316  f :     0.001801
      f+1     :     0.000224
      f-1     :     0.000096
      f+2     :     0.000326
      f-2     :     0.000142
      f+3     :     0.000345
      f-3     :     0.000353

  5 O s       :     3.810976  s :     3.810976
      pz      :     1.427796  p :     4.518954
      px      :     1.701744
      py      :     1.389414
      dz2     :     0.004608  d :     0.028548
      dxz     :     0.002586
      dyz     :     0.007344
      dx2y2   :     0.007268
      dxy     :     0.006741
      f0      :     0.000093  f :     0.001878
      f+1     :     0.000089
      f-1     :     0.000365
      f+2     :     0.000249
      f-2     :     0.000289
      f+3     :     0.000364
      f-3     :     0.000430

  6 C s       :     3.106132  s :     3.106132
      pz      :     0.847129  p :     2.652194
      px      :     0.942898
      py      :     0.862167
      dz2     :     0.033867  d :     0.133054
      dxz     :     0.017915
      dyz     :     0.039541
      dx2y2   :     0.017653
      dxy     :     0.024078
      f0      :     0.001857  f :     0.009881
      f+1     :     0.001001
      f-1     :     0.001953
      f+2     :     0.001816
      f-2     :     0.001017
      f+3     :     0.001352
      f-3     :     0.000886

  7 C s       :     3.444154  s :     3.444154
      pz      :     0.927141  p :     2.827921
      px      :     0.949476
      py      :     0.951303
      dz2     :     0.017089  d :     0.098048
      dxz     :     0.013994
      dyz     :     0.037720
      dx2y2   :     0.010394
      dxy     :     0.018851
      f0      :     0.001321  f :     0.007658
      f+1     :     0.000903
      f-1     :     0.001398
      f+2     :     0.001317
      f-2     :     0.000847
      f+3     :     0.001261
      f-3     :     0.000612

  8 C s       :     3.102730  s :     3.102730
      pz      :     0.831026  p :     2.542681
      px      :     0.934795
      py      :     0.776859
      dz2     :     0.036220  d :     0.128651
      dxz     :     0.021689
      dyz     :     0.033135
      dx2y2   :     0.021421
      dxy     :     0.016185
      f0      :     0.001965  f :     0.010107
      f+1     :     0.000977
      f-1     :     0.002108
      f+2     :     0.001857
      f-2     :     0.001184
      f+3     :     0.001042
      f-3     :     0.000973

  9 C s       :     3.270367  s :     3.270367
      pz      :     0.935560  p :     2.816850
      px      :     0.948445
      py      :     0.932845
      dz2     :     0.025486  d :     0.099875
      dxz     :     0.007423
      dyz     :     0.030071
      dx2y2   :     0.015836
      dxy     :     0.021059
      f0      :     0.001205  f :     0.007805
      f+1     :     0.000563
      f-1     :     0.001510
      f+2     :     0.001479
      f-2     :     0.000797
      f+3     :     0.001414
      f-3     :     0.000837

 10 C s       :     3.194920  s :     3.194920
      pz      :     0.927804  p :     2.826682
      px      :     0.958460
      py      :     0.940418
      dz2     :     0.016389  d :     0.096529
      dxz     :     0.012374
      dyz     :     0.041956
      dx2y2   :     0.009743
      dxy     :     0.016067
      f0      :     0.001389  f :     0.007730
      f+1     :     0.000987
      f-1     :     0.001421
      f+2     :     0.001333
      f-2     :     0.000668
      f+3     :     0.001325
      f-3     :     0.000608

 11 C s       :     3.268081  s :     3.268081
      pz      :     0.875040  p :     2.774674
      px      :     0.962890
      py      :     0.936745
      dz2     :     0.029955  d :     0.095435
      dxz     :     0.020475
      dyz     :     0.022814
      dx2y2   :     0.015775
      dxy     :     0.006415
      f0      :     0.001668  f :     0.007630
      f+1     :     0.001125
      f-1     :     0.001419
      f+2     :     0.001189
      f-2     :     0.000928
      f+3     :     0.000418
      f-3     :     0.000883

 12 C s       :     3.167561  s :     3.167561
      pz      :     0.770886  p :     2.375448
      px      :     0.770842
      py      :     0.833719
      dz2     :     0.050959  d :     0.209857
      dxz     :     0.035301
      dyz     :     0.075119
      dx2y2   :     0.019636
      dxy     :     0.028842
      f0      :     0.004211  f :     0.017550
      f+1     :     0.002597
      f-1     :     0.004510
      f+2     :     0.002577
      f-2     :     0.001651
      f+3     :     0.001145
      f-3     :     0.000859

 13 O s       :     3.820562  s :     3.820562
      pz      :     1.374419  p :     4.521001
      px      :     1.366129
      py      :     1.780454
      dz2     :     0.009539  d :     0.028577
      dxz     :     0.008440
      dyz     :     0.007674
      dx2y2   :     0.001505
      dxy     :     0.001419
      f0      :     0.000556  f :     0.001790
      f+1     :     0.000394
      f-1     :     0.000445
      f+2     :     0.000171
      f-2     :     0.000182
      f+3     :     0.000016
      f-3     :     0.000026

 14 C s       :     3.142345  s :     3.142345
      pz      :     0.870830  p :     2.598901
      px      :     0.888691
      py      :     0.839380
      dz2     :     0.023455  d :     0.128744
      dxz     :     0.014854
      dyz     :     0.039000
      dx2y2   :     0.022812
      dxy     :     0.028623
      f0      :     0.001667  f :     0.010071
      f+1     :     0.001118
      f-1     :     0.001232
      f+2     :     0.001821
      f-2     :     0.001756
      f+3     :     0.001033
      f-3     :     0.001444

 15 C s       :     3.270623  s :     3.270623
      pz      :     0.929662  p :     2.823004
      px      :     0.914605
      py      :     0.978738
      dz2     :     0.029255  d :     0.099214
      dxz     :     0.014858
      dyz     :     0.017041
      dx2y2   :     0.018501
      dxy     :     0.019560
      f0      :     0.001041  f :     0.007715
      f+1     :     0.000960
      f-1     :     0.001303
      f+2     :     0.001265
      f-2     :     0.001463
      f+3     :     0.001047
      f-3     :     0.000636

 16 C s       :     3.192209  s :     3.192209
      pz      :     0.954875  p :     2.838348
      px      :     0.959526
      py      :     0.923947
      dz2     :     0.015802  d :     0.095591
      dxz     :     0.014955
      dyz     :     0.021969
      dx2y2   :     0.024179
      dxy     :     0.018687
      f0      :     0.000835  f :     0.007701
      f+1     :     0.000851
      f-1     :     0.001153
      f+2     :     0.001360
      f-2     :     0.001170
      f+3     :     0.000866
      f-3     :     0.001466

 17 C s       :     3.191031  s :     3.191031
      pz      :     0.942527  p :     2.815138
      px      :     0.928556
      py      :     0.944054
      dz2     :     0.014094  d :     0.097083
      dxz     :     0.009334
      dyz     :     0.034079
      dx2y2   :     0.016963
      dxy     :     0.022614
      f0      :     0.001270  f :     0.007624
      f+1     :     0.000888
      f-1     :     0.000664
      f+2     :     0.001346
      f-2     :     0.001348
      f+3     :     0.000866
      f-3     :     0.001242

 18 C s       :     3.192525  s :     3.192525
      pz      :     0.930483  p :     2.830338
      px      :     0.946494
      py      :     0.953361
      dz2     :     0.027370  d :     0.095939
      dxz     :     0.015187
      dyz     :     0.017195
      dx2y2   :     0.018179
      dxy     :     0.018007
      f0      :     0.001037  f :     0.007665
      f+1     :     0.000948
      f-1     :     0.001294
      f+2     :     0.001337
      f-2     :     0.001421
      f+3     :     0.000914
      f-3     :     0.000714

 19 C s       :     3.273597  s :     3.273597
      pz      :     0.932176  p :     2.813734
      px      :     0.957829
      py      :     0.923729
      dz2     :     0.016863  d :     0.098660
      dxz     :     0.014958
      dyz     :     0.023592
      dx2y2   :     0.023227
      dxy     :     0.020021
      f0      :     0.000853  f :     0.007722
      f+1     :     0.000843
      f-1     :     0.001162
      f+2     :     0.001356
      f-2     :     0.001137
      f+3     :     0.000911
      f-3     :     0.001461

 20 H s       :     0.846832  s :     0.846832
      pz      :     0.009585  p :     0.019712
      px      :     0.004830
      py      :     0.005297

 21 H s       :     0.844451  s :     0.844451
      pz      :     0.004875  p :     0.019573
      px      :     0.007223
      py      :     0.007474

 22 H s       :     0.851463  s :     0.851463
      pz      :     0.006726  p :     0.019408
      px      :     0.004514
      py      :     0.008168

 23 H s       :     0.582531  s :     0.582531
      pz      :     0.014177  p :     0.042680
      px      :     0.010526
      py      :     0.017977

 24 H s       :     0.837921  s :     0.837921
      pz      :     0.007562  p :     0.020169
      px      :     0.005395
      py      :     0.007212

 25 H s       :     0.848571  s :     0.848571
      pz      :     0.010648  p :     0.019961
      px      :     0.004618
      py      :     0.004695

 26 H s       :     0.840684  s :     0.840684
      pz      :     0.007745  p :     0.019811
      px      :     0.005172
      py      :     0.006894

 27 H s       :     0.851284  s :     0.851284
      pz      :     0.003927  p :     0.019928
      px      :     0.004428
      py      :     0.011573

 28 H s       :     0.822132  s :     0.822132
      pz      :     0.004054  p :     0.020445
      px      :     0.005476
      py      :     0.010915

 29 H s       :     0.841255  s :     0.841255
      pz      :     0.008382  p :     0.019854
      px      :     0.007469
      py      :     0.004004

 30 H s       :     0.840071  s :     0.840071
      pz      :     0.007143  p :     0.019822
      px      :     0.004741
      py      :     0.007938

 31 H s       :     0.841659  s :     0.841659
      pz      :     0.004057  p :     0.019854
      px      :     0.005162
      py      :     0.010634

 32 H s       :     0.850321  s :     0.850321
      pz      :     0.009015  p :     0.020197
      px      :     0.007181
      py      :     0.004001



                     *******************************
                     * LOEWDIN POPULATION ANALYSIS *
                     *******************************

----------------------
LOEWDIN ATOMIC CHARGES
----------------------
   0 H :    0.185007
   1 C :   -0.209035
   2 C :   -0.263379
   3 C :   -0.462159
   4 O :    0.116327
   5 O :    0.066349
   6 C :   -0.121548
   7 C :   -0.050632
   8 C :   -0.118252
   9 C :   -0.090185
  10 C :   -0.125402
  11 C :   -0.090923
  12 C :   -0.246955
  13 O :    0.093389
  14 C :   -0.123177
  15 C :   -0.088257
  16 C :   -0.132073
  17 C :   -0.122303
  18 C :   -0.130770
  19 C :   -0.084775
  20 H :    0.127376
  21 H :    0.125667
  22 H :    0.126984
  23 H :    0.218908
  24 H :    0.161916
  25 H :    0.157263
  26 H :    0.153494
  27 H :    0.158769
  28 H :    0.159022
  29 H :    0.151687
  30 H :    0.151568
  31 H :    0.151504
  32 H :    0.154597

-------------------------------
LOEWDIN REDUCED ORBITAL CHARGES
-------------------------------
  0 H s       :     0.757492  s :     0.757492
      pz      :     0.020239  p :     0.057501
      px      :     0.012717
      py      :     0.024546

  1 C s       :     2.735173  s :     2.735173
      pz      :     0.964860  p :     2.947307
      px      :     1.000758
      py      :     0.981690
      dz2     :     0.082140  d :     0.476852
      dxz     :     0.097396
      dyz     :     0.107533
      dx2y2   :     0.087996
      dxy     :     0.101786
      f0      :     0.007870  f :     0.049703
      f+1     :     0.006531
      f-1     :     0.005488
      f+2     :     0.008492
      f-2     :     0.006101
      f+3     :     0.007758
      f-3     :     0.007464

  2 C s       :     2.832914  s :     2.832914
      pz      :     1.071454  p :     3.141596
      px      :     1.003336
      py      :     1.066806
      dz2     :     0.040634  d :     0.263563
      dxz     :     0.052302
      dyz     :     0.045658
      dx2y2   :     0.049371
      dxy     :     0.075598
      f0      :     0.003291  f :     0.025305
      f+1     :     0.003282
      f-1     :     0.001877
      f+2     :     0.004619
      f-2     :     0.002398
      f+3     :     0.005609
      f-3     :     0.004229

  3 C s       :     2.776502  s :     2.776502
      pz      :     0.791038  p :     2.630273
      px      :     0.884871
      py      :     0.954364
      dz2     :     0.093339  d :     0.911339
      dxz     :     0.152667
      dyz     :     0.129796
      dx2y2   :     0.275652
      dxy     :     0.259886
      f0      :     0.010683  f :     0.144045
      f+1     :     0.010961
      f-1     :     0.013914
      f+2     :     0.025853
      f-2     :     0.013003
      f+3     :     0.030961
      f-3     :     0.038670

  4 O s       :     3.334706  s :     3.334706
      pz      :     1.590574  p :     4.475969
      px      :     1.448685
      py      :     1.436710
      dz2     :     0.006804  d :     0.068361
      dxz     :     0.011267
      dyz     :     0.007378
      dx2y2   :     0.027396
      dxy     :     0.015516
      f0      :     0.000507  f :     0.004637
      f+1     :     0.000608
      f-1     :     0.000109
      f+2     :     0.000919
      f-2     :     0.000222
      f+3     :     0.000944
      f-3     :     0.001328

  5 O s       :     3.416356  s :     3.416356
      pz      :     1.374759  p :     4.448781
      px      :     1.605081
      py      :     1.468941
      dz2     :     0.007305  d :     0.062789
      dxz     :     0.004991
      dyz     :     0.016537
      dx2y2   :     0.017412
      dxy     :     0.016544
      f0      :     0.000488  f :     0.005724
      f+1     :     0.000189
      f-1     :     0.000766
      f+2     :     0.000875
      f-2     :     0.000953
      f+3     :     0.001272
      f-3     :     0.001181

  6 C s       :     2.718645  s :     2.718645
      pz      :     0.954163  p :     2.845502
      px      :     0.863610
      py      :     1.027729
      dz2     :     0.130798  d :     0.503229
      dxz     :     0.065412
      dyz     :     0.150485
      dx2y2   :     0.076500
      dxy     :     0.080033
      f0      :     0.010535  f :     0.054172
      f+1     :     0.005675
      f-1     :     0.011415
      f+2     :     0.009446
      f-2     :     0.006366
      f+3     :     0.005636
      f-3     :     0.005098

  7 C s       :     2.764187  s :     2.764187
      pz      :     0.987035  p :     2.875265
      px      :     0.884550
      py      :     1.003680
      dz2     :     0.075215  d :     0.371095
      dxz     :     0.046786
      dyz     :     0.143244
      dx2y2   :     0.046441
      dxy     :     0.059409
      f0      :     0.008086  f :     0.040084
      f+1     :     0.005355
      f-1     :     0.007915
      f+2     :     0.006278
      f-2     :     0.003003
      f+3     :     0.005255
      f-3     :     0.004193

  8 C s       :     2.712534  s :     2.712534
      pz      :     1.020505  p :     2.860761
      px      :     0.875025
      py      :     0.965230
      dz2     :     0.137937  d :     0.490109
      dxz     :     0.077136
      dyz     :     0.141262
      dx2y2   :     0.082245
      dxy     :     0.051528
      f0      :     0.010433  f :     0.054848
      f+1     :     0.005564
      f-1     :     0.012250
      f+2     :     0.009495
      f-2     :     0.007371
      f+3     :     0.004577
      f-3     :     0.005160

  9 C s       :     2.763679  s :     2.763679
      pz      :     0.981368  p :     2.896570
      px      :     0.876835
      py      :     1.038368
      dz2     :     0.096069  d :     0.386668
      dxz     :     0.026737
      dyz     :     0.122503
      dx2y2   :     0.068254
      dxy     :     0.073104
      f0      :     0.006664  f :     0.043268
      f+1     :     0.003006
      f-1     :     0.009380
      f+2     :     0.008315
      f-2     :     0.005445
      f+3     :     0.005554
      f-3     :     0.004904

 10 C s       :     2.772236  s :     2.772236
      pz      :     1.010696  p :     2.929454
      px      :     0.889215
      py      :     1.029543
      dz2     :     0.077512  d :     0.381566
      dxz     :     0.045531
      dyz     :     0.154650
      dx2y2   :     0.047519
      dxy     :     0.056354
      f0      :     0.008777  f :     0.042147
      f+1     :     0.005539
      f-1     :     0.008643
      f+2     :     0.006862
      f-2     :     0.002654
      f+3     :     0.005327
      f-3     :     0.004345

 11 C s       :     2.766608  s :     2.766608
      pz      :     1.032157  p :     2.900921
      px      :     0.882741
      py      :     0.986024
      dz2     :     0.124076  d :     0.381709
      dxz     :     0.072091
      dyz     :     0.103311
      dx2y2   :     0.059281
      dxy     :     0.022950
      f0      :     0.008666  f :     0.041684
      f+1     :     0.005608
      f-1     :     0.009386
      f+2     :     0.006699
      f-2     :     0.006332
      f+3     :     0.001741
      f-3     :     0.003253

 12 C s       :     2.745824  s :     2.745824
      pz      :     0.941907  p :     2.650443
      px      :     0.728492
      py      :     0.980043
      dz2     :     0.201655  d :     0.743041
      dxz     :     0.119580
      dyz     :     0.257232
      dx2y2   :     0.080858
      dxy     :     0.083715
      f0      :     0.025600  f :     0.107647
      f+1     :     0.017309
      f-1     :     0.028476
      f+2     :     0.014889
      f-2     :     0.010230
      f+3     :     0.005987
[...]
      f0      :     0.008981  f :     0.042490
      f+1     :     0.005399
      f-1     :     0.008890
      f+2     :     0.007042
      f-2     :     0.002466
      f+3     :     0.005265
      f-3     :     0.004449

 11 C s       :     2.764981  s :     2.764981
      pz      :     1.032334  p :     2.893523
      px      :     0.869547
      py      :     0.991642
      dz2     :     0.123725  d :     0.380340
      dxz     :     0.069668
      dyz     :     0.107786
      dx2y2   :     0.057997
      dxy     :     0.021165
      f0      :     0.009006  f :     0.041939
      f+1     :     0.004971
      f-1     :     0.009914
      f+2     :     0.006632
      f-2     :     0.006657
      f+3     :     0.001429
      f-3     :     0.003330

 12 C s       :     2.749595  s :     2.749595
      pz      :     0.942371  p :     2.648731
      px      :     0.726203
      py      :     0.980156
      dz2     :     0.202715  d :     0.735775
      dxz     :     0.119312
      dyz     :     0.255569
      dx2y2   :     0.078010
      dxy     :     0.080169
      f0      :     0.025382  f :     0.104370
      f+1     :     0.016694
      f-1     :     0.027166
      f+2     :     0.014693
      f-2     :     0.010047
      f+3     :     0.005544
      f-3     :     0.004845

 13 O s       :     3.412215  s :     3.412215
      pz      :     1.482427  p :     4.435165
      px      :     1.308964
      py      :     1.643774
      dz2     :     0.024596  d :     0.065171
      dxz     :     0.013996
      dyz     :     0.021247
      dx2y2   :     0.002889
      dxy     :     0.002443
      f0      :     0.001753  f :     0.005611
      f+1     :     0.001145
      f-1     :     0.001649
      f+2     :     0.000522
      f-2     :     0.000471
      f+3     :     0.000034
      f-3     :     0.000037

 14 C s       :     2.715117  s :     2.715117
      pz      :     0.946857  p :     2.865283
      px      :     0.936716
      py      :     0.981710
      dz2     :     0.089625  d :     0.486511
      dxz     :     0.068254
      dyz     :     0.135515
      dx2y2   :     0.098236
      dxy     :     0.094881
      f0      :     0.008870  f :     0.054015
      f+1     :     0.006146
      f-1     :     0.007025
      f+2     :     0.007632
      f-2     :     0.009626
      f+3     :     0.006195
      f-3     :     0.008521

 15 C s       :     2.766607  s :     2.766607
      pz      :     0.968002  p :     2.900111
      px      :     0.938381
      py      :     0.993728
      dz2     :     0.101315  d :     0.382602
      dxz     :     0.064267
      dyz     :     0.072250
      dx2y2   :     0.068038
      dxy     :     0.076731
      f0      :     0.004868  f :     0.041964
      f+1     :     0.005658
      f-1     :     0.007441
      f+2     :     0.006772
      f-2     :     0.007869
      f+3     :     0.004869
      f-3     :     0.004487

 16 C s       :     2.772446  s :     2.772446
      pz      :     0.955513  p :     2.936574
      px      :     0.934249
      py      :     1.046812
      dz2     :     0.053685  d :     0.381244
      dxz     :     0.059970
      dyz     :     0.094651
      dx2y2   :     0.093567
      dxy     :     0.079371
      f0      :     0.005278  f :     0.042259
      f+1     :     0.003198
      f-1     :     0.006862
      f+2     :     0.005848
      f-2     :     0.007188
      f+3     :     0.005221
      f-3     :     0.008665

 17 C s       :     2.775227  s :     2.775227
      pz      :     0.959221  p :     2.918441
      px      :     0.946799
      py      :     1.012421
      dz2     :     0.056579  d :     0.384215
      dxz     :     0.049414
      dyz     :     0.115128
      dx2y2   :     0.080513
      dxy     :     0.082581
      f0      :     0.006768  f :     0.042179
      f+1     :     0.005429
      f-1     :     0.004040
      f+2     :     0.005622
      f-2     :     0.007174
      f+3     :     0.005524
      f-3     :     0.007620

 18 C s       :     2.772320  s :     2.772320
      pz      :     0.996410  p :     2.935563
      px      :     0.949718
      py      :     0.989435
      dz2     :     0.098052  d :     0.381344
      dxz     :     0.066843
      dyz     :     0.074785
      dx2y2   :     0.066302
      dxy     :     0.075362
      f0      :     0.004921  f :     0.042292
      f+1     :     0.005873
      f-1     :     0.007287
      f+2     :     0.006869
      f-2     :     0.008192
      f+3     :     0.004636
      f-3     :     0.004514

 19 C s       :     2.766436  s :     2.766436
      pz      :     0.956332  p :     2.896824
      px      :     0.920553
      py      :     1.019938
      dz2     :     0.058939  d :     0.381663
      dxz     :     0.060341
      dyz     :     0.093060
      dx2y2   :     0.090392
      dxy     :     0.078930
      f0      :     0.005489  f :     0.042178
      f+1     :     0.003385
      f-1     :     0.006996
      f+2     :     0.005910
      f-2     :     0.006915
      f+3     :     0.005076
      f-3     :     0.008408

 20 H s       :     0.812010  s :     0.812010
      pz      :     0.032575  p :     0.060608
      px      :     0.013486
      py      :     0.014546

 21 H s       :     0.810846  s :     0.810846
      pz      :     0.016006  p :     0.060477
      px      :     0.022584
      py      :     0.021886

 22 H s       :     0.812048  s :     0.812048
      pz      :     0.020321  p :     0.060851
      px      :     0.012385
      py      :     0.028145

 23 H s       :     0.636719  s :     0.636719
      pz      :     0.040661  p :     0.146207
      px      :     0.027842
      py      :     0.077704

 24 H s       :     0.775486  s :     0.775486
      pz      :     0.023927  p :     0.060481
      px      :     0.014136
      py      :     0.022418

 25 H s       :     0.785244  s :     0.785244
      pz      :     0.032420  p :     0.059889
      px      :     0.013774
      py      :     0.013695

 26 H s       :     0.787983  s :     0.787983
      pz      :     0.023332  p :     0.058759
      px      :     0.013680
      py      :     0.021747

 27 H s       :     0.782303  s :     0.782303
      pz      :     0.011748  p :     0.059187
      px      :     0.012534
      py      :     0.034905

 28 H s       :     0.781021  s :     0.781021
      pz      :     0.011667  p :     0.060233
      px      :     0.016493
      py      :     0.032074

 29 H s       :     0.789419  s :     0.789419
      pz      :     0.024091  p :     0.058852
      px      :     0.023125
      py      :     0.011637

 30 H s       :     0.789747  s :     0.789747
      pz      :     0.021619  p :     0.058696
      px      :     0.013221
      py      :     0.023856

 31 H s       :     0.789767  s :     0.789767
      pz      :     0.011626  p :     0.058759
      px      :     0.016167
      py      :     0.030966

 32 H s       :     0.786064  s :     0.786064
      pz      :     0.025796  p :     0.059814
      px      :     0.022648
      py      :     0.011370



                      *****************************
                      * MAYER POPULATION ANALYSIS *
                      *****************************

  NA   - Mulliken gross atomic population
  ZA   - Total nuclear charge
  QA   - Mulliken gross atomic charge
  VA   - Mayer's total valence
  BVA  - Mayer's bonded valence
  FA   - Mayer's free valence

  ATOM       NA         ZA         QA         VA         BVA        FA
  0 H      0.8687     1.0000     0.1313     0.9702     0.9702     0.0000
  1 C      6.0127     6.0000    -0.0127     3.7283     3.7283    -0.0000
  2 C      6.3940     6.0000    -0.3940     3.9596     3.9596    -0.0000
  3 C      5.7357     6.0000     0.2643     4.3742     4.3742     0.0000
  4 O      8.3533     8.0000    -0.3533     2.1258     2.1258    -0.0000
  5 O      8.3556     8.0000    -0.3556     2.1493     2.1493    -0.0000
  6 C      5.9168     6.0000     0.0832     3.7608     3.7608    -0.0000
  7 C      6.3100     6.0000    -0.3100     3.9574     3.9574    -0.0000
  8 C      5.8115     6.0000     0.1885     3.4961     3.4961    -0.0000
  9 C      6.1933     6.0000    -0.1933     3.9475     3.9475     0.0000
 10 C      6.1243     6.0000    -0.1243     3.8634     3.8634     0.0000
 11 C      6.1713     6.0000    -0.1713     3.8922     3.8922     0.0000
 12 C      5.7784     6.0000     0.2216     3.9612     3.9612    -0.0000
 13 O      8.3777     8.0000    -0.3777     2.1022     2.1022    -0.0000
 14 C      5.8585     6.0000     0.1415     3.5394     3.5394    -0.0000
 15 C      6.2133     6.0000    -0.2133     3.9337     3.9337     0.0000
 16 C      6.1337     6.0000    -0.1337     3.8759     3.8759    -0.0000
 17 C      6.1078     6.0000    -0.1078     3.8828     3.8828    -0.0000
 18 C      6.1276     6.0000    -0.1276     3.8805     3.8805    -0.0000
 19 C      6.1945     6.0000    -0.1945     3.9563     3.9563    -0.0000
 20 H      0.8634     1.0000     0.1366     0.9714     0.9714    -0.0000
 21 H      0.8659     1.0000     0.1341     0.9715     0.9715     0.0000
 22 H      0.8665     1.0000     0.1335     0.9788     0.9788    -0.0000
 23 H      0.6305     1.0000     0.3695     0.8812     0.8812     0.0000
 24 H      0.8476     1.0000     0.1524     0.9675     0.9675    -0.0000
 25 H      0.8695     1.0000     0.1305     0.9898     0.9898     0.0000
 26 H      0.8609     1.0000     0.1391     0.9619     0.9619     0.0000
 27 H      0.8653     1.0000     0.1347     0.9764     0.9764     0.0000
 28 H      0.8390     1.0000     0.1610     0.9550     0.9550    -0.0000
 29 H      0.8613     1.0000     0.1387     0.9614     0.9614    -0.0000
 30 H      0.8589     1.0000     0.1411     0.9595     0.9595     0.0000
 31 H      0.8614     1.0000     0.1386     0.9617     0.9617    -0.0000
 32 H      0.8710     1.0000     0.1290     0.9909     0.9909    -0.0000

  Mayer bond orders larger than 0.100000
B(  0-H ,  1-C ) :   0.9005 B(  1-C ,  2-C ) :   0.9939 B(  1-C ,  3-C ) :   0.9838 
B(  1-C ,  6-C ) :   0.9303 B(  2-C , 20-H ) :   0.9610 B(  2-C , 21-H ) :   0.9612 
B(  2-C , 22-H ) :   0.9604 B(  3-C ,  4-O ) :   1.2293 B(  3-C ,  5-O ) :   2.0546 
B(  4-O , 23-H ) :   0.8382 B(  6-C ,  7-C ) :   1.3389 B(  6-C , 11-C ) :   1.3275 
B(  7-C ,  8-C ) :   1.3106 B(  7-C , 24-H ) :   0.9842 B(  8-C ,  9-C ) :   1.3070 
B(  8-C , 12-C ) :   0.9637 B(  9-C , 10-C ) :   1.3939 B(  9-C , 25-H ) :   0.9811 
B( 10-C , 11-C ) :   1.3682 B( 10-C , 26-H ) :   0.9805 B( 11-C , 27-H ) :   0.9775 
B( 12-C , 13-O ) :   1.9578 B( 12-C , 14-C ) :   0.9878 B( 14-C , 15-C ) :   1.3085 
B( 14-C , 19-C ) :   1.3103 B( 15-C , 16-C ) :   1.3953 B( 15-C , 28-H ) :   0.9706 
B( 16-C , 17-C ) :   1.3790 B( 16-C , 29-H ) :   0.9771 B( 17-C , 18-C ) :   1.3620 
B( 17-C , 30-H ) :   0.9715 B( 18-C , 19-C ) :   1.4211 B( 18-C , 31-H ) :   0.9774 
B( 19-C , 32-H ) :   0.9803 

-------
TIMINGS
-------

Total SCF time: 0 days 0 hours 0 min 56 sec 

Total time                  ....      56.122 sec
Sum of individual times     ....      56.096 sec  (100.0%)

SCF preparation             ....       0.344 sec  (  0.6%)
Fock matrix formation       ....      54.796 sec  ( 97.6%)
  Startup                   ....       0.022 sec  (  0.0% of F)
  Split-RI-J                ....      10.663 sec  ( 19.5% of F)
  XC integration            ....      28.741 sec  ( 52.5% of F)
    Basis function eval.    ....       3.869 sec  ( 13.5% of XC)
    Density eval.           ....      12.265 sec  ( 42.7% of XC)
    XC-Functional eval.     ....       0.440 sec  (  1.5% of XC)
    XC-Potential eval.      ....      11.787 sec  ( 41.0% of XC)
  CPCM terms                ....      15.287 sec  ( 27.9% of F)
Diagonalization             ....       0.000 sec  (  0.0%)
Density matrix formation    ....       0.058 sec  (  0.1%)
Total Energy calculation    ....       0.029 sec  (  0.1%)
Population analysis         ....       0.086 sec  (  0.2%)
Orbital Transformation      ....       0.163 sec  (  0.3%)
Orbital Orthonormalization  ....       0.000 sec  (  0.0%)
DIIS solution               ....       0.264 sec  (  0.5%)
SOSCF solution              ....       0.356 sec  (  0.6%)
Finished LeanSCF after  56.2 sec

Maximum memory used throughout the entire LEANSCF-calculation: 141.8 MB

-------------------------   --------------------
FINAL SINGLE POINT ENERGY      -844.300275398969
-------------------------   --------------------

                                *** OPTIMIZATION RUN DONE ***


------------------------------------------------------------------------------
                              ORCA PROPERTY CALCULATIONS
------------------------------------------------------------------------------

GBWName                                 ... Dexketoprofen\Dexketoprofen_TPSS_def2-TZVP\Dexketoprofen_TPSS_def2-TZVP.orcainp.gbw
Number of atoms                         ...     33
Number of basis functions               ...    673
Max core memory                         ...   1024 MB

Electric properties:
Dipole moment                           ... YES
Quadrupole moment                       ...  NO
Static polarizability (Dipole/Dipole)   ...  NO
Static polarizability (Dipole/Quad.)    ...  NO
Static polarizability (Quad./Quad.)     ...  NO
Static polarizability (Velocity)        ...  NO

Atomic electric properties:
Dipole moment                           ...  NO
Quadrupole moment                       ...  NO
Static polarizability                   ...  NO

Choice of electric origin               ... Center of mass
Position of electric origin             ...     5.494636    -4.410891    -3.086986

General magnetic properties:
Magnetizability                         ...  NO

EPR properties:
g-Tensor (aka g-matrix)                 ...  NO
Zero-Field splitting spin-orbit         ...  NO
Zero-field splitting spin-spin          ...  NO
Hyperfine couplings                     ...  NO (   0 nuclei)
Quadrupole couplings                    ...  NO (   0 nuclei)
Contact density                         ...  NO (   0 nuclei)

NMR properties:
Chemical shifts                         ...  NO (   0 nuclei)
Spin-rotation constants                 ...  NO (   0 nuclei)
Spin-spin couplings                     ...  NO (   0 nuclei,    0 pairs)

Choice of magnetic origin               ... GIAO
Position of magnetic origin             ...     0.000000     0.000000     0.000000

Properties with geometric perturbations:
SCF Hessian                             ...  NO
IR spectrum                             ...  NO
VCD spectrum                            ...  NO
X-ray spectroscopy properties:
SCF XES/XAS/RIXS spectra                ...  NO


-------------
DIPOLE MOMENT
-------------

Method             : SCF
Type of density    : Electron Density
Multiplicity       :   1
Irrep              :   0
Energy             :  -844.3002753989692337 Eh
Relativity type    : 
Basis              : AO
                                X                 Y                 Z
Electronic contribution:      4.029042312      -1.251773303      -3.388812640
Nuclear contribution   :     -3.993816681      -0.311563686       4.375596541
                        -----------------------------------------
Total Dipole Moment    :      0.035225631      -1.563336989       0.986783902
                        -----------------------------------------
Magnitude (a.u.)       :      1.849055395
Magnitude (Debye)      :      4.699925305



--------------------
Rotational spectrum 
--------------------
 
Rotational constants in cm-1:             0.020938             0.007100             0.005913 
Rotational constants in MHz :           627.703197           212.853267           177.257181 

Dipole components along the rotational axes: 
x,y,z [a.u.] :    -1.247015     1.310598     0.382480 
x,y,z [Debye]:    -3.169660     3.331277     0.972188 

 

Dipole moment calculation done in   0.0 sec 

Maximum memory used throughout the entire PROP-calculation: 80.4 MB

--------------------------------
SUGGESTED CITATIONS FOR THIS RUN
--------------------------------

Below you find a list of papers that are relevant to this ORCA run
We neither can nor want to force you to cite these papers, but we appreciate if you do
You receive ORCA, which is the product of decades of hard work by many enthusiastic individuals, for free
The only thing we kindly ask in return is that you cite our papers,
We deeply appreciate it, if you show your appreciation for ORCA by not just citing the generic ORCA reference.

Please note that relegating all ORCA citations to the supporting information does *not* help us.
SI sections are not indexed - citations you put there will not count into any citation statistics
But we need these citations in order to attract the funding resources that allow us to do what we are doing

Therefore, if you are a happy ORCA user, please consider citing a few of the papers listed below in the main body of your paper

In addition to the list printed below, the program has created the file Dexketoprofen\Dexketoprofen_TPSS_def2-TZVP\Dexketoprofen_TPSS_def2-TZVP.orcainp.bibtex that contains the list in bibtex format
You can import this file easily into all common literature databanks and citation aid programs


List of essential papers. We consider these as the minimum necessary citations

  1. Neese,F.
     Software update: the ORCA program system, version 5.0
     WIRES Comput. Molec. Sci., 2022 12(1)e1606
     doi.org/10.1002/wcms.1606

List of papers to cite with high priority. The work reported in these papers was absolutely
necessary for this run to complete.
Our perspective: the developers of density functionals and basis sets usually get cited in chemistry papers
Good! But without the algorithms to do something with them, the functionals or basis sets would not do anything.
Hence, in our opinion, the algorithm design and method developments papers are equally worthy of getting cited

  1. Neese,F.
     An improvement of the resolution of the identity approximation for the formation of the Coulomb matrix
     J. Comp. Chem., 2003 24(14)1740-1747
     doi.org/10.1002/jcc.10318
  2. Garcia-Rates,M.; Neese,F.
     Effect of the Solute Cavity on the Solvation Energy and its Derivatives within the Framework of the Gaussian Charge Scheme
     J. Comput. Chem., 2020 41 922-939
     doi.org/10.1002/jcc.26139
  3. Neese,F.
     The SHARK Integral Generation and Digestion System
     J. Comp. Chem., 2022  1-16
     doi.org/10.1002/jcc.26942

List of suggested additional citations. These are papers that are important in the 'surrounding' of 
of this run, or papers that preceded the highly important papers. If you like your results we are grateful for a citation.

  1. Neese,F.
     The ORCA program system
     WIRES Comput. Molec. Sci., 2012 2(1)73-78
     doi.org/10.1002/wcms.81
  2. Neese,F.
     Software update: the ORCA program system, version 4.0
     WIRES Comput. Molec. Sci., 2018 8(1)1-6
     doi.org/10.1002/wcms.1327
  3. Neese,F.; Wennmohs,F.; Becker,U.; Riplinger,C.
     The ORCA quantum chemistry program package
     J. Chem. Phys., 2020 152 Art. No. L224108
     doi.org/10.1063/5.0004608

List of optional additional citations

  1. Neese,F.
     Approximate second-order SCF convergence for spin unrestricted wavefunctions
     Chem. Phys. Lett., 2000 325(1-3)93-98
     doi.org/10.1016/s0009-2614(00)00662-x

Timings for individual modules:

Sum of individual times          ...     1860.160 sec (=  31.003 min)
Startup calculation              ...       26.354 sec (=   0.439 min)   1.4 %
SCF iterations                   ...     1375.810 sec (=  22.930 min)  74.0 %
Property calculations            ...        0.139 sec (=   0.002 min)   0.0 %
SCF Gradient evaluation          ...      457.689 sec (=   7.628 min)  24.6 %
Geometry relaxation              ...        0.168 sec (=   0.003 min)   0.0 %
                             ****ORCA TERMINATED NORMALLY****
TOTAL RUN TIME: 0 days 0 hours 31 minutes 2 seconds 61 msec
