
                                 *****************
                                 * O   R   C   A *
                                 *****************

                                            #,                                       
                                            ###                                      
                                            ####                                     
                                            #####                                    
                                            ######                                   
                                           ########,                                 
                                     ,,################,,,,,                         
                               ,,#################################,,                 
                          ,,##########################################,,             
                       ,#########################################, ''#####,          
                    ,#############################################,,   '####,        
                  ,##################################################,,,,####,       
                ,###########''''           ''''###############################       
              ,#####''   ,,,,##########,,,,          '''####'''          '####       
            ,##' ,,,,###########################,,,                        '##       
           ' ,,###''''                  '''############,,,                           
         ,,##''                                '''############,,,,        ,,,,,,###''
      ,#''                                            '''#######################'''  
     '                                                          ''''####''''         
             ,#######,   #######,   ,#######,      ##                                
            ,#'     '#,  ##    ##  ,#'     '#,    #''#        ,####,   ,####,        
            ##       ##  ##   ,#'  ##            #'  '#       #'       #'  '#        
            ##       ##  #######   ##           ,######,      #####,   #    #        
            '#,     ,#'  ##    ##  '#,     ,#' ,#      #,     #,   #   #,  ,#        
             '#######'   ##     ##  '#######'  #'      '#     '####' # '####'        



                #########################################################
                #                        -***-                          #
                #          Department of theory and spectroscopy        #
                #                                                       #
                #                      Frank Neese                      #
                #                                                       #
                #     Directorship, Architecture, Infrastructure        #
                #                    SHARK, DRIVERS                     #
                #        Core code/Algorithms in most modules           #
                #                                                       #
                #        Max Planck Institute fuer Kohlenforschung      #
                #                Kaiser Wilhelm Platz 1                 #
                #                 D-45470 Muelheim/Ruhr                 #
                #                      Germany                          #
                #                                                       #
                #                  All rights reserved                  #
                #                        -***-                          #
                #########################################################


                         Program Version 6.0.0  -   RELEASE   -


 With contributions from (in alphabetic order):
   Daniel Aravena         : Magnetic Suceptibility
   Michael Atanasov       : Ab Initio Ligand Field Theory (pilot matlab implementation)
   Alexander A. Auer      : GIAO ZORA, VPT2 properties, NMR spectrum
   Ute Becker             : All parallelization in ORCA, NUMFREQ, NUMCALC
   Giovanni Bistoni       : ED, misc. LED, open-shell LED, HFLD
   Martin Brehm           : Molecular dynamics
   Dmytro Bykov           : pre 5.0 version of the SCF Hessian
   Marcos Casanova-Páez   : Triplet and SCS-CIS(D). UHF-(DLPNO)-IP/EA/STEOM-CCSD. UHF-CVS-IP/STEOM-CCSD
   Vijay G. Chilkuri      : MRCI spin determinant printing, contributions to CSF-ICE
   Pauline Colinet        : FMM embedding
   Dipayan Datta          : RHF DLPNO-CCSD density
   Achintya Kumar Dutta   : EOM-CC, STEOM-CC
   Nicolas Foglia         : Exact transition moments, OPA infrastructure, MCD improvements
   Dmitry Ganyushin       : Spin-Orbit,Spin-Spin,Magnetic field MRCI
   Miquel Garcia          : C-PCM and meta-GGA Hessian, CCSD/C-PCM, Gaussian charge scheme
   Tiago L. C. Gouveia    : GS-ROHF, GS-ROCIS
   Yang Guo               : DLPNO-NEVPT2, F12-NEVPT2, CIM, IAO-localization
   Andreas Hansen         : Spin unrestricted coupled pair/coupled cluster methods
   Ingolf Harden          : AUTO-CI MPn and infrastructure 
   Benjamin Helmich-Paris : MC-RPA, TRAH-(SCF,CASSCF), AVAS, COSX integrals, SCF dyn. polar.
   Lee Huntington         : MR-EOM, pCC
   Robert Izsak           : Overlap fitted RIJCOSX, COSX-SCS-MP3, EOM
   Riya Kayal             : Wick's Theorem for AUTO-CI, AUTO-CI UHF-CCSDT
   Emily Kempfer          : AUTO-CI, RHF CISDT and CCSDT
   Christian Kollmar      : KDIIS, OOCD, Brueckner-CCSD(T), CCSD density, CASPT2, CASPT2-K, improved NEVPT2
   Axel Koslowski         : Symmetry handling
   Simone Kossmann        : Meta GGA functionals, TD-DFT gradient, OOMP2, (MP2 Hessian; deprecated post 5.0)
   Lucas Lang             : DCDCAS
   Marvin Lechner         : AUTO-CI (C++ implementation), FIC-MRCC
   Spencer Leger          : CASSCF response
   Dagmar Lenk            : GEPOL surface, SMD, ORCA-2-JSON
   Dimitrios Liakos       : Extrapolation schemes; Compound Job, initial MDCI parallelization
   Dimitrios Manganas     : Further ROCIS development; embedding schemes. LFT, Crystal Embedding
   Dimitrios Pantazis     : SARC Basis sets
   Anastasios Papadopoulos: AUTO-CI, single reference methods and gradients
   Taras Petrenko         : pre 6.0 DFT Hessian and TD-DFT gradient, (ASA, deprecated), ECA, 1-Electron XAS/XES, NRVS
   Peter Pinski           : DLPNO-MP2, DLPNO-MP2 Gradient
   Christoph Reimann      : Effective Core Potentials
   Marius Retegan         : Local ZFS, SOC
   Christoph Riplinger    : Optimizer, TS searches, QM/MM, DLPNO-CCSD(T), (RO)-DLPNO pert. Triples
   Michael Roemelt        : Original ROCIS implementation
   Masaaki Saitow         : Open-shell DLPNO-CCSD energy and density
   Barbara Sandhoefer     : DKH picture change effects
   Kantharuban Sivalingam : CASSCF convergence/infrastructure, NEVPT2 and variants, FIC-MRCI
   Bernardo de Souza      : ESD, SOC TD-DFT
   Georgi Stoychev        : AutoAux, RI-MP2 NMR, DLPNO-MP2 response, X2C
   Van Anh Tran           : RI-MP2 g-tensors
   Willem Van den Heuvel  : Paramagnetic NMR
   Zikuan Wang            : NOTCH, Electric field optimization 
   Frank Wennmohs         : Technical directorship and infrastructure
   Hang Xu                : AUTO-CI-Response properties 


 We gratefully acknowledge several colleagues who have allowed us to
 interface, adapt or use parts of their codes:
   Stefan Grimme, W. Hujo, H. Kruse, P. Pracht,  : VdW corrections, initial TS optimization,
                  C. Bannwarth, S. Ehlert,         DFT functionals, gCP, sTDA/sTD-DF
                  L. Wittmann, M. Mueller
   Ed Valeev, F. Pavosevic, A. Kumar             : LibInt (2-el integral package), F12 methods
   Garnet Chan, S. Sharma, J. Yang, R. Olivares  : DMRG
   Ulf Ekstrom                                   : XCFun DFT Library
   Mihaly Kallay                                 : mrcc  (arbitrary order and MRCC methods)
   Frank Weinhold                                : gennbo (NPA and NBO analysis)
   Simon Mueller                                 : openCOSMO-RS
   Christopher J. Cramer and Donald G. Truhlar   : smd solvation model
   Lars Goerigk                                  : TD-DFT with DH, B97 family of functionals
   V. Asgeirsson, H. Jonsson                     : NEB implementation
   FAccTs GmbH                                   : IRC, NEB, NEB-TS, DLPNO-Multilevel, CI-OPT
                                                   MM, QMMM, 2- and 3-layer-ONIOM, Crystal-QMMM,
                                                   LR-CPCM, SF, NACMEs, symmetry and pop. for TD-DFT,
                                                   nearIR, NL-DFT gradient (VV10), updates on ESD,
                                                   ML-optimized integration grids, MBIS, APM,
                                                   GOAT, DOCKER, SOLVATOR, interface openCOSMO-RS
   S Lehtola, MJT Oliveira, MAL Marques          : LibXC Library
   Liviu Ungur et al                             : ANISO software


 Your calculation uses the libint2 library for the computation of 2-el integrals
 For citations please refer to: http://libint.valeyev.net

 Your ORCA version has been built with support for libXC version: 6.2.2
 For citations please refer to: https://libxc.gitlab.io

 This ORCA versions uses:
   CBLAS   interface :  Fast vector & matrix operations
   LAPACKE interface :  Fast linear algebra routines
   Shared memory     :  Shared parallel matrices


Warning: RI is on but no J-basis has been assigned. Assigning Def2/J (nothing to worry about!)
================================================================================

----- Orbital basis set information -----
Your calculation utilizes the basis: STO-3G
   H-Ne       : W. J. Hehre, R. F. Stewart and J. A. Pople, J. Chem. Phys. 2657 (1969).
   Na-Ar      : W. J. Hehre, R. Ditchfield, R. F. Stewart and J. A. Pople, J. Chem. Phys. 2769 (1970).
   K,Ca,Ga-Kr : W. J. Pietro, B. A. Levy, W. J. Hehre and R. F. Stewart, J. Am. Chem. Soc. 19, 2225 (1980).
   Sc-Zn,Y-Cd : W. J. Pietro and W. J. Hehre, J. Comp. Chem. 4, 241 (1983).

----- AuxJ basis set information -----
Your calculation utilizes the auxiliary basis: def2/J
   F. Weigend, Phys. Chem. Chem. Phys. 8, 1057 (2006).

================================================================================
                                        WARNINGS
                       Please study these warnings very carefully!
================================================================================

WARNING: Old DensityContainer found on disk!
         Will remove this file - 
         If you want to keep old densities, please start your calculation with a different basename. 

INFO   : Checking CIS options ...

WARNING: CIS/ROCIS methods need fully converged wavefunctions
  ===> : Setting SCFConvForced true
         You can overwrite this default with %scf ConvForced false 


================================================================================
                                       INPUT FILE
================================================================================
NAME = Diclofenac\Diclofenac_TPSS_STO-3G\Diclofenac_TPSS_STO-3G.orcainp.xyz
|  1> # ORCA xyz input file 
|  2> # 
|  3> !TPSS STO-3G CPCM(WATER) LARGEPRINT 
|  4> %tddft
|  5>     NRoots 30
|  6>     MaxDim 5
|  7> end
|  8> * xyz 0 1
|  9>   O           3.03350740594707      1.35276883093067     -3.19528749262474
| 10>   C           2.90890889864390     -0.01748069808663     -2.93063633831531
| 11>   O           2.44343279272411     -0.82164945988464     -3.78960242568995
| 12>   C           3.35082962343538     -0.49176951279935     -1.44684012210700
| 13>   C           4.82972699057940     -0.23682386120894     -1.10821919479454
| 14>   C           5.75154026375838     -1.31068754551449     -0.99600135358037
| 15>   C           7.11049661810210     -1.08036294625759     -0.68352406009704
| 16>   C           7.57501891872905      0.23620437617080     -0.46486282455693
| 17>   C           6.68036682778148      1.32634294060379     -0.56375967021284
| 18>   C           5.32597226489918      1.08678090455251     -0.89114214712457
| 19>   N           4.31517462262799      2.20012435655884     -1.06176287296830
| 20>   C           4.83483311445359      3.58299404034887     -1.07672803472397
| 21>   C           5.63781714489591      4.10298649968792     -2.13946029550921
| 22>   Cl          6.14326603408147      3.00886472013540     -3.49256457333502
| 23>   C           6.04244387196146      5.45901883692296     -2.17471319893877
| 24>   C           5.62384649307311      6.34027483113722     -1.15048877159065
| 25>   C           4.80399194502193      5.87774559718009     -0.09429467655624
| 26>   C           4.42664506248216      4.51655143533328     -0.07269735873579
| 27>   Cl          3.36917728775134      3.89350546783885      1.26881721653267
| 28>   H           3.51384450768078      1.76557457416765     -2.32189906690186
| 29>   H           3.14475664368806     -1.57665564147777     -1.37597812584649
| 30>   H           2.69652875793098      0.03214050227513     -0.71767436529468
| 31>   H           5.39028273578543     -2.34053951684725     -1.15649315256521
| 32>   H           7.80677875567417     -1.93185730959720     -0.60496882871065
| 33>   H           8.63221761855930      0.42073503105036     -0.21184645951486
| 34>   H           7.03110501966875      2.35609623677400     -0.38696899234610
| 35>   H           3.64609813149765      2.16712318897790     -0.22715413726338
| 36>   H           6.66954118868877      5.81822084555786     -3.00773005278170
| 37>   H           5.93276170861926      7.39880885377066     -1.17981584370074
| 38>   H           4.46542875125772      6.55816442169909      0.70478721985429
| 39> *
| 40> 
| 41>                          ****END OF INPUT****
================================================================================

                       ****************************
                       * Single Point Calculation *
                       ****************************

---------------------------------
CARTESIAN COORDINATES (ANGSTROEM)
---------------------------------
  O      3.033507    1.352769   -3.195287
  C      2.908909   -0.017481   -2.930636
  O      2.443433   -0.821649   -3.789602
  C      3.350830   -0.491770   -1.446840
  C      4.829727   -0.236824   -1.108219
  C      5.751540   -1.310688   -0.996001
  C      7.110497   -1.080363   -0.683524
  C      7.575019    0.236204   -0.464863
  C      6.680367    1.326343   -0.563760
  C      5.325972    1.086781   -0.891142
  N      4.315175    2.200124   -1.061763
  C      4.834833    3.582994   -1.076728
  C      5.637817    4.102986   -2.139460
  Cl     6.143266    3.008865   -3.492565
  C      6.042444    5.459019   -2.174713
  C      5.623846    6.340275   -1.150489
  C      4.803992    5.877746   -0.094295
  C      4.426645    4.516551   -0.072697
  Cl     3.369177    3.893505    1.268817
  H      3.513845    1.765575   -2.321899
  H      3.144757   -1.576656   -1.375978
  H      2.696529    0.032141   -0.717674
  H      5.390283   -2.340540   -1.156493
  H      7.806779   -1.931857   -0.604969
  H      8.632218    0.420735   -0.211846
  H      7.031105    2.356096   -0.386969
  H      3.646098    2.167123   -0.227154
  H      6.669541    5.818221   -3.007730
  H      5.932762    7.398809   -1.179816
  H      4.465429    6.558164    0.704787

----------------------------
CARTESIAN COORDINATES (A.U.)
----------------------------
  NO LB      ZA    FRAG     MASS         X           Y           Z
   0 O     8.0000    0    15.999    5.732498    2.556363   -6.038218
   1 C     6.0000    0    12.011    5.497041   -0.033034   -5.538100
   2 O     8.0000    0    15.999    4.617419   -1.552692   -7.161311
   3 C     6.0000    0    12.011    6.332150   -0.929310   -2.734132
   4 C     6.0000    0    12.011    9.126861   -0.447532   -2.094231
   5 C     6.0000    0    12.011   10.868836   -2.476841   -1.882170
   6 C     6.0000    0    12.011   13.436891   -2.041590   -1.291673
   7 C     6.0000    0    12.011   14.314711    0.446362   -0.878463
   8 C     6.0000    0    12.011   12.624064    2.506425   -1.065351
   9 C     6.0000    0    12.011   10.064629    2.053718   -1.684015
  10 N     7.0000    0    14.007    8.154498    4.157632   -2.006441
  11 C     6.0000    0    12.011    9.136510    6.770877   -2.034721
  12 C     6.0000    0    12.011   10.653930    7.753521   -4.042994
  13 Cl   17.0000    0    35.453   11.609090    5.685930   -6.599991
  14 C     6.0000    0    12.011   11.418564   10.316051   -4.109612
  15 C     6.0000    0    12.011   10.627530   11.981383   -2.174109
  16 C     6.0000    0    12.011    9.078229   11.107329   -0.178191
  17 C     6.0000    0    12.011    8.365147    8.535045   -0.137378
  18 Cl   17.0000    0    35.453    6.366822    7.357659    2.397717
  19 H     1.0000    0     1.008    6.640204    3.336452   -4.387753
  20 H     1.0000    0     1.008    5.942729   -2.979447   -2.600222
  21 H     1.0000    0     1.008    5.095701    0.060737   -1.356208
  22 H     1.0000    0     1.008   10.186158   -4.422979   -2.185455
  23 H     1.0000    0     1.008   14.752674   -3.650681   -1.143225
  24 H     1.0000    0     1.008   16.312527    0.795074   -0.400332
  25 H     1.0000    0     1.008   13.286863    4.452377   -0.731265
  26 H     1.0000    0     1.008    6.890127    4.095269   -0.429259
  27 H     1.0000    0     1.008   12.603606   10.994844   -5.683786
  28 H     1.0000    0     1.008   11.211295   13.981722   -2.229529
  29 H     1.0000    0     1.008    8.438437   12.393135    1.331855

--------------------------------
INTERNAL COORDINATES (ANGSTROEM)
--------------------------------
 O      0   0   0     0.000000000000     0.00000000     0.00000000
 C      1   0   0     1.401124117725     0.00000000     0.00000000
 O      2   1   0     1.265376679844   121.73602576     0.00000000
 C      2   1   3     1.619226672827   115.80265385   181.93806939
 C      4   2   1     1.538440392158   114.55173561   298.18943415
 C      5   4   2     1.419688616199   121.07935174   250.76027288
 C      6   5   4     1.413313076773   121.23437562   180.07557029
 C      7   6   5     1.413132413539   120.14024878     0.52437931
 C      8   7   6     1.413713209807   119.97179107   359.75458064
 C      9   8   7     1.413843657294   119.45693085   359.56048813
 N     10   9   8     1.513392529331   122.77034508   182.08968997
 C     11  10   9     1.477361657326   117.05316229     9.11231834
 C     12  11  10     1.429886488162   123.05613945    68.64272702
 Cl    13  12  11     1.812035384517   119.47581560   356.03575461
 C     13  12  11     1.415552632396   121.82995824   175.40185235
 C     15  13  12     1.414521675524   119.61627482   358.65008430
 C     16  15  13     1.414793532149   120.55476938   359.91504458
 C     17  16  15     1.412694822014   118.76419396     0.83232241
 Cl    18  17  16     1.818264482374   119.78813155   180.19673474
 H      1   2   3     1.078860350156   105.12237086   183.76047468
 H      4   2   1     1.106555650519   107.15940121   177.00707008
 H      4   2   1     1.110978860016   107.61197526    60.95986287
 H      6   5   4     1.103113639620   118.81815575     0.00000000
 H      7   6   5     1.102734052380   119.80447145   180.17121057
 H      8   7   6     1.102605067326   120.43835333   179.44576888
 H      9   8   7     1.102117994591   120.52203912   179.49961799
 H     11  10   9     1.070198191813   107.87597798   251.23758658
 H     15  13  12     1.102811954252   119.56240675   179.43933629
 H     16  15  13     1.103078856940   119.71743285   180.39604321
 H     17  16  15     1.102781342834   121.14054469   180.49298417

---------------------------
INTERNAL COORDINATES (A.U.)
---------------------------
 O      0   0   0     0.000000000000     0.00000000     0.00000000
 C      1   0   0     2.647740862133     0.00000000     0.00000000
 O      2   1   0     2.391215381156   121.73602576     0.00000000
 C      2   1   3     3.059894960384   115.80265385   181.93806939
 C      4   2   1     2.907231014542   114.55173561   298.18943415
 C      5   4   2     2.682822680062   121.07935174   250.76027288
 C      6   5   4     2.670774656590   121.23437562   180.07557029
 C      7   6   5     2.670433252555   120.14024878     0.52437931
 C      8   7   6     2.671530798441   119.97179107   359.75458064
 C      9   8   7     2.671777308468   119.45693085   359.56048813
 N     10   9   8     2.859897413557   122.77034508   182.08968997
 C     11  10   9     2.791808933103   117.05316229     9.11231834
 C     12  11  10     2.702093865221   123.05613945    68.64272702
 Cl    13  12  11     3.424250621711   119.47581560   356.03575461
 C     13  12  11     2.675006803380   121.82995824   175.40185235
 C     15  13  12     2.673058577236   119.61627482   358.65008430
 C     16  15  13     2.673572311805   120.55476938   359.91504458
 C     17  16  15     2.669606324415   118.76419396     0.83232241
 Cl    18  17  16     3.436021910723   119.78813155   180.19673474
 H      1   2   3     2.038750598541   105.12237086   183.76047468
 H      4   2   1     2.091087131423   107.15940121   177.00707008
 H      4   2   1     2.099445786007   107.61197526    60.95986287
 H      6   5   4     2.084582673476   118.81815575     0.00000000
 H      7   6   5     2.083865357548   119.80447145   180.17121057
 H      8   7   6     2.083621611119   120.43835333   179.44576888
 H      9   8   7     2.082701177044   120.52203912   179.49961799
 H     11  10   9     2.022381491544   107.87597798   251.23758658
 H     15  13  12     2.084012570750   119.56240675   179.43933629
 H     16  15  13     2.084516943735   119.71743285   180.39604321
 H     17  16  15     2.083954723554   121.14054469   180.49298417

---------------------
BASIS SET INFORMATION
---------------------
There are 5 groups of distinct atoms

 Group   1 Type O   : 6s3p contracted to 2s1p pattern {33/3}
 Group   2 Type C   : 6s3p contracted to 2s1p pattern {33/3}
 Group   3 Type N   : 6s3p contracted to 2s1p pattern {33/3}
 Group   4 Type Cl  : 9s6p contracted to 3s2p pattern {333/33}
 Group   5 Type H   : 3s contracted to 1s pattern {3}

Atom   0O    basis set group =>   1
Atom   1C    basis set group =>   2
Atom   2O    basis set group =>   1
Atom   3C    basis set group =>   2
Atom   4C    basis set group =>   2
Atom   5C    basis set group =>   2
Atom   6C    basis set group =>   2
Atom   7C    basis set group =>   2
Atom   8C    basis set group =>   2
Atom   9C    basis set group =>   2
Atom  10N    basis set group =>   3
Atom  11C    basis set group =>   2
Atom  12C    basis set group =>   2
Atom  13Cl   basis set group =>   4
Atom  14C    basis set group =>   2
Atom  15C    basis set group =>   2
Atom  16C    basis set group =>   2
Atom  17C    basis set group =>   2
Atom  18Cl   basis set group =>   4
Atom  19H    basis set group =>   5
Atom  20H    basis set group =>   5
Atom  21H    basis set group =>   5
Atom  22H    basis set group =>   5
Atom  23H    basis set group =>   5
Atom  24H    basis set group =>   5
Atom  25H    basis set group =>   5
Atom  26H    basis set group =>   5
Atom  27H    basis set group =>   5
Atom  28H    basis set group =>   5
Atom  29H    basis set group =>   5

-------------------------
BASIS SET IN INPUT FORMAT
-------------------------

 # Basis set for element : H 
 NewGTO H 
 S 3 
   1       3.4252509100      0.1543289707
   2       0.6239137300      0.5353281424
   3       0.1688554000      0.4446345420
  end;

 # Basis set for element : C 
 NewGTO C 
 S 3 
   1      71.6168370000      0.1543289700
   2      13.0450960000      0.5353281400
   3       3.5305122000      0.4446345400
 S 3 
   1       2.9412494000     -0.0999672301
   2       0.6834831000      0.3995128303
   3       0.2222899000      0.7001154705
 P 3 
   1       2.9412494000      0.1559162721
   2       0.6834831000      0.6076837282
   3       0.2222899000      0.3919573953
  end;

 # Basis set for element : N 
 NewGTO N 
 S 3 
   1      99.1061690000      0.1543289703
   2      18.0523120000      0.5353281411
   3       4.8856602000      0.4446345409
 S 3 
   1       3.7804559000     -0.0999672284
   2       0.8784966000      0.3995128238
   3       0.2857144000      0.7001154591
 P 3 
   1       3.7804559000      0.1559162685
   2       0.8784966000      0.6076837143
   3       0.2857144000      0.3919573863
  end;

 # Basis set for element : O 
 NewGTO O 
 S 3 
   1     130.7093200000      0.1543289687
   2      23.8088610000      0.5353281356
   3       6.4436083000      0.4446345363
 S 3 
   1       5.0331513000     -0.0999672287
   2       1.1695961000      0.3995128246
   3       0.3803890000      0.7001154606
 P 3 
   1       5.0331513000      0.1559162685
   2       1.1695961000      0.6076837141
   3       0.3803890000      0.3919573862
  end;

 # Basis set for element : Cl
 NewGTO Cl
 S 3 
   1     601.3456136000      0.1543289673
   2     109.5358542000      0.5353281423
   3      29.6446768600      0.4446345422
 S 3 
   1      38.9604188900     -0.0999672292
   2       9.0535634770      0.3995128261
   3       2.9444998340      0.7001154689
 P 3 
   1      38.9604188900      0.1559162750
   2       9.0535634770      0.6076837186
   3       2.9444998340      0.3919573931
 S 3 
   1       2.1293864950     -0.2196203690
   2       0.5940934274      0.2255954336
   3       0.2325241410      0.9003984260
 P 3 
   1       2.1293864950      0.0105876043
   2       0.5940934274      0.5951670053
   3       0.2325241410      0.4620010120
  end;

---------------------------------
AUXILIARY/J BASIS SET INFORMATION
---------------------------------
There are 5 groups of distinct atoms

 Group   1 Type O   : 12s5p4d2f1g contracted to 6s4p3d1f1g pattern {711111/2111/211/2/1}
 Group   2 Type C   : 12s5p4d2f1g contracted to 6s4p3d1f1g pattern {711111/2111/211/2/1}
 Group   3 Type N   : 12s5p4d2f1g contracted to 6s4p3d1f1g pattern {711111/2111/211/2/1}
 Group   4 Type Cl  : 14s5p5d2f1g contracted to 8s4p3d1f1g pattern {71111111/2111/311/2/1}
 Group   5 Type H   : 5s2p1d contracted to 3s1p1d pattern {311/2/1}

Atom   0O    basis set group =>   1
Atom   1C    basis set group =>   2
Atom   2O    basis set group =>   1
Atom   3C    basis set group =>   2
Atom   4C    basis set group =>   2
Atom   5C    basis set group =>   2
Atom   6C    basis set group =>   2
Atom   7C    basis set group =>   2
Atom   8C    basis set group =>   2
Atom   9C    basis set group =>   2
Atom  10N    basis set group =>   3
Atom  11C    basis set group =>   2
Atom  12C    basis set group =>   2
Atom  13Cl   basis set group =>   4
Atom  14C    basis set group =>   2
Atom  15C    basis set group =>   2
Atom  16C    basis set group =>   2
Atom  17C    basis set group =>   2
Atom  18Cl   basis set group =>   4
Atom  19H    basis set group =>   5
Atom  20H    basis set group =>   5
Atom  21H    basis set group =>   5
Atom  22H    basis set group =>   5
Atom  23H    basis set group =>   5
Atom  24H    basis set group =>   5
Atom  25H    basis set group =>   5
Atom  26H    basis set group =>   5
Atom  27H    basis set group =>   5
Atom  28H    basis set group =>   5
Atom  29H    basis set group =>   5

-------------------------------------
AUXILIARY/J BASIS SET IN INPUT FORMAT
-------------------------------------

 # Auxiliary/J basis set for element : H 
 NewAuxJGTO H 
 S 3 
   1      15.6752927000      0.1007184237
   2       3.6063578000      0.3404257499
   3       1.2080016000      0.6491996172
 S 1 
   1       0.4726794000      1.0000000000
 S 1 
   1       0.2018100000      1.0000000000
 P 2 
   1       2.0281365000      0.5596620919
   2       0.5358730000      0.5596620919
 D 1 
   1       2.2165124000      1.0000000000
  end;

 # Auxiliary/J basis set for element : C 
 NewAuxJGTO C 
 S 7 
   1    1861.0916331000      0.0134602335
   2     642.9939764000      0.0299160374
   3     235.1105725000      0.1008649584
   4      90.7028894000      0.2370970548
   5      36.7794552000      0.3924037254
   6      15.6046273000      0.3195862154
   7       6.8907294000      0.0530104441
 S 1 
   1       3.1478850000     -1.0000000000
 S 1 
   1       1.4777287000      1.0000000000
 S 1 
   1       0.7076466000      1.0000000000
 S 1 
   1       0.3430122000      1.0000000000
 S 1 
   1       0.1669453000      1.0000000000
 P 2 
   1      13.5472892000     -0.6769313712
   2       5.4669419000     -0.3779500978
 P 1 
   1       2.1751721000      1.0000000000
 P 1 
   1       0.8582194000      1.0000000000
 P 1 
   1       0.3376720000      1.0000000000
 D 2 
   1       5.9287253000     -0.3533329857
   2       1.9809209000     -0.7456525731
 D 1 
   1       0.8055417000     -1.0000000000
 D 1 
   1       0.3531244000     -1.0000000000
 F 2 
   1       1.6755626000      0.6311076882
   2       0.5997536000      0.4968166032
 G 1 
   1       1.0024600000     -1.0000000000
  end;

 # Auxiliary/J basis set for element : N 
 NewAuxJGTO N 
 S 7 
   1    2542.9401785000      0.0128431329
   2    1029.5472946000      0.0206655120
   3     424.9053546000      0.0652200677
   4     178.4573708000      0.1617388940
   5      76.1362742000      0.3094256941
   6      32.9338653000      0.3918849307
   7      14.4155436000      0.1822470660
 S 1 
   1       6.3718891000     -1.0000000000
 S 1 
   1       2.8381742000      1.0000000000
 S 1 
   1       1.2711793000      1.0000000000
 S 1 
   1       0.5712407000      1.0000000000
 S 1 
   1       0.2569887000      1.0000000000
 P 2 
   1      17.8975990000     -1.0974070137
   2       6.5346319000      0.1380055963
 P 1 
   1       2.3523645000      1.0000000000
 P 1 
   1       0.8397377000      1.0000000000
 P 1 
   1       0.2989335000      1.0000000000
 D 2 
   1       7.6909870000      0.1770780943
   2       2.3044972000      0.8918319220
 D 1 
   1       0.8403987000      1.0000000000
 D 1 
   1       0.3303797000      1.0000000000
 F 2 
   1       2.3331076000      0.6223178877
   2       0.8446137000      0.5036714203
 G 1 
   1       1.4037700000     -1.0000000000
  end;

 # Auxiliary/J basis set for element : O 
 NewAuxJGTO O 
 S 7 
   1    2876.8216605000      0.0168151159
   2    1004.7443032000      0.0340137548
   3     369.7579954000      0.1194951309
   4     142.9442404000      0.2664627624
   5      57.8366425000      0.4202764046
   6      24.3864983000      0.2765077335
   7      10.6622662000      0.0057008815
 S 1 
   1       4.8070437000     -1.0000000000
 S 1 
   1       2.2210770000      1.0000000000
 S 1 
   1       1.0447795000      1.0000000000
 S 1 
   1       0.4968425000      1.0000000000
 S 1 
   1       0.2371384000      1.0000000000
 P 2 
   1      64.2613382000     -0.2731534179
   2      16.3006076000     -0.8168011598
 P 1 
   1       4.3550542000      1.0000000000
 P 1 
   1       1.2019554000      1.0000000000
 P 1 
   1       0.3354196000      1.0000000000
 D 2 
   1       9.2146611000     -0.4661230638
   2       2.8435251000     -0.6600908911
 D 1 
   1       0.9955759000     -1.0000000000
 D 1 
   1       0.3649441000     -1.0000000000
 F 2 
   1       2.6420115000      0.5931563945
   2       0.7345613000      0.5931563945
 G 1 
   1       1.3931000000     -1.0000000000
  end;

 # Auxiliary/J basis set for element : Cl
 NewAuxJGTO Cl
 S 7 
   1    8044.2766240000      0.0309054740
   2    2924.5123954000      0.0600734063
   3    1110.8168739000      0.1862207460
   4     439.9050761000      0.3715503251
   5     181.1987287000      0.4220785347
   6      77.4148302000      0.0994388367
   7      34.1977273000     -0.0596902748
 S 1 
   1      15.5648397000      1.0000000000
 S 1 
   1       7.2707873000      1.0000000000
 S 1 
   1       3.4711900000     -1.0000000000
 S 1 
   1       1.6860808000     -1.0000000000
 S 1 
   1       0.8293125000      1.0000000000
 S 1 
   1       0.4110124000      1.0000000000
 S 1 
   1       0.2042190000      1.0000000000
 P 2 
   1      12.2564993000      1.4910316311
   2       4.8922575000     -1.4908224419
 P 1 
   1       1.9265460000      1.0000000000
 P 1 
   1       0.7525989000     -1.0000000000
 P 1 
   1       0.2932189000     -1.0000000000
 D 3 
   1      28.4370504000     -1.0829567244
   2       7.2772298000      0.5502349187
   3       2.3111621000     -0.5567798939
 D 1 
   1       0.8580943000     -1.0000000000
 D 1 
   1       0.3376227000     -1.0000000000
 F 2 
   1       1.2035685000      0.5557691438
   2       0.4700000000      0.5557691438
 G 1 
   1       0.7521100000     -1.0000000000
  end;


Checking for AutoStart:
The File: Diclofenac\Diclofenac_TPSS_STO-3G\Diclofenac_TPSS_STO-3G.orcainp.gbw exists
Trying to determine its content:
     ... Fine, the file contains calculation information
     ... Fine, the calculation information was read
     ... Fine, the file contains a basis set
     ... Fine, the basis set was read
     ... Fine, the file contains a geometry
     ... Fine, the geometry was read
     ... Fine, the file contains a set of orbitals
     ... Fine, the orbitals can be read
     => possible old guess file was deleted
     => GBW file was renamed to GES file
     => GES file is set as startup file
     => Guess is set to MORead
     ... now leaving AutoStart

------------------------------------------------------------------------------
                             ORCA STARTUP CALCULATIONS
                           -- RI-GTO INTEGRALS CHOSEN --
------------------------------------------------------------------------------
------------------------------------------------------------------------------
                   ___                                                        
                  /   \      - P O W E R E D   B Y -                         
                 /     \                                                     
                 |  |  |   _    _      __       _____    __    __             
                 |  |  |  | |  | |    /  \     |  _  \  |  |  /  |          
                  \  \/   | |  | |   /    \    | | | |  |  | /  /          
                 / \  \   | |__| |  /  /\  \   | |_| |  |  |/  /          
                |  |  |   |  __  | /  /__\  \  |    /   |      \           
                |  |  |   | |  | | |   __   |  |    \   |  |\   \          
                \     /   | |  | | |  |  |  |  | |\  \  |  | \   \       
                 \___/    |_|  |_| |__|  |__|  |_| \__\ |__|  \__/        
                                                                              
                      - O R C A' S   B I G   F R I E N D -                    
                                      &                                       
                       - I N T E G R A L  F E E D E R -                       
                                                                              
 v1 FN, 2020, v2 2021, v3 2022-2024                                           
------------------------------------------------------------------------------


----------------------
SHARK INTEGRAL PACKAGE
----------------------

Number of atoms                             ...     30
Number of basis functions                   ...    114
Number of shells                            ...     72
Maximum angular momentum                    ...      1
Integral batch strategy                     ... SHARK/LIBINT Hybrid
RI-J (if used) integral strategy            ... SPLIT-RIJ (Revised 2003 algorithm where possible)
Printlevel                                  ...      1
Contraction scheme used                     ... SEGMENTED contraction
Prescreening option                         ... SCHWARTZ
   Thresh                                   ... 1.000e-10
   Tcut                                     ... 1.000e-11
   Tpresel                                  ... 1.000e-11 
Coulomb Range Separation                    ... NOT USED
Exchange Range Separation                   ... NOT USED
Multipole approximations                    ... NOT USED
Finite Nucleus Model                        ... NOT USED
CABS basis                                  ... NOT available
Auxiliary Coulomb fitting basis             ... AVAILABLE
   # of basis functions in Aux-J            ...   1056
   # of shells in Aux-J                     ...    344
   Maximum angular momentum in Aux-J        ...      4
Auxiliary J/K fitting basis                 ... NOT available
Auxiliary Correlation fitting basis         ... NOT available
Auxiliary 'external' fitting basis          ... NOT available

Checking pre-screening integrals            ... done (  0.0 sec) Dimension = 72
Check shell pair data                       ... done (  0.0 sec)
Shell pair information
Shell pair cut-off parameter TPreSel        ...   1.0e-11
Total number of shell pairs                 ...      2628
Shell pairs after pre-screening             ...      2126
Total number of primitive shell pairs       ...     23652
Primitive shell pairs kept                  ...     11731
          la=0 lb=0:    976 shell pairs
          la=1 lb=0:    928 shell pairs
          la=1 lb=1:    222 shell pairs

Calculating one electron integrals          ... done (  0.0 sec)
Calculating RI/J V-Matrix + Cholesky decomp.... done (  0.0 sec)
Calculating Nuclear repulsion               ... done (  0.0 sec) ENN=   1635.103159050519 Eh

Diagonalization of the overlap matrix:
Smallest eigenvalue                        ... 1.837e-01
Time for diagonalization                   ...    0.001 sec
Threshold for overlap eigenvalues          ... 1.000e-07
Number of eigenvalues below threshold      ... 0
Time for construction of square roots      ...    0.002 sec
Total time needed                          ...    0.003 sec

-------------------
DFT GRID GENERATION
-------------------

General Integration Accuracy     IntAcc      ... 4.388
Radial Grid Type                 RadialGrid  ... OptM3 with GC (2021)
Angular Grid (max. ang.)         AngularGrid ... 4 (Lebedev-302)
Angular grid pruning method      GridPruning ... 4 (adaptive)
Weight generation scheme         WeightScheme... mBecke (2022)
Basis function cutoff            BFCut       ... 1.0000e-10
Integration weight cutoff        WCut        ... 1.0000e-14
Partially contracted basis set               ... off
Rotationally invariant grid construction     ... off
Angular grids for H and He will be reduced by one unit

Total number of grid points                  ...   151417
Total number of batches                      ...     2380
Average number of points per batch           ...       63
Average number of grid points per atom       ...     5047
Initializing property integral containers    ... done (  0.0 sec)

SHARK setup successfully completed in   0.8 seconds

Maximum memory used throughout the entire STARTUP-calculation: 53.9 MB
-------------------------------------------------------------------------------
                                 ORCA GUESS
                   Start orbitals & Density for SCF / CASSCF
-------------------------------------------------------------------------------

------------
SCF SETTINGS
------------
Hamiltonian:
 Density Functional     Method          .... DFT(GTOs)
 Exchange Functional    Exchange        .... TPSS
 Correlation Functional Correlation     .... TPSS
 LDA part of GGA corr.  LDAOpt          .... PW91-LDA
 Gradients option       PostSCFGGA      .... off
   NL short-range parameter             ....  5.000000
 RI-approximation to the Coulomb term is turned on
   Number of AuxJ basis functions       .... 1056


General Settings:
 Integral files         IntName         .... Diclofenac\Diclofenac_TPSS_STO-3G\Diclofenac_TPSS_STO-3G.orcainp
 Hartree-Fock type      HFTyp           .... RHF
 Total Charge           Charge          ....    0
 Multiplicity           Mult            ....    1
 Number of Electrons    NEL             ....  152
 Basis Dimension        Dim             ....  114
 Nuclear Repulsion      ENuc            ....   1635.1031590505 Eh

Convergence Acceleration:
 AO-DIIS                CNVDIIS         .... on
   Start iteration      DIISMaxIt       ....    12
   Startup error        DIISStart       ....  0.200000
   # of expansion vecs  DIISMaxEq       ....     5
   Bias factor          DIISBfac        ....   1.050
   Max. coefficient     DIISMaxC        ....  10.000
 MO-DIIS                CNVKDIIS        .... off
 Trust-Rad. Augm. Hess. CNVTRAH         .... auto
   Auto Start mean grad. ratio tolernc. ....  1.125000
   Auto Start start iteration           ....     1
   Auto Start num. interpolation iter.  ....    10
   Max. Number of Micro iterations      ....    24
   Max. Number of Macro iterations      .... Maxiter - #DIIS iter
   Number of Davidson start vectors     ....     2
   Converg. threshold    (grad. norm)   ....   5.000e-05
   Grad. Scal. Fac. for Micro threshold ....   0.100
   Minimum threshold for Micro iter.    ....   1.000e-02
   NR start threshold (gradient norm)   ....   1.000e-04
   Initial trust radius                 ....   0.400
   Minimum AH scaling param. (alpha)    ....   1.000
   Maximum AH scaling param. (alpha)    .... 1000.000
   Quad. conv. algorithm                .... NR
   White noise on init. David. guess    .... on
   Maximum white noise                  ....   0.010
   Pseudo random numbers                .... off
   Inactive MOs                         .... canonical
   Orbital update algorithm             .... Taylor
   Preconditioner                       .... Diag
   Full preconditioner red. dimension   ....   250
 SOSCF                  CNVSOSCF        .... on
   Start iteration      SOSCFMaxIt      ....   150
   Startup grad/error   SOSCFStart      ....  0.003300
   Hessian update       SOSCFHessUp     .... L-BFGS
 Level Shifting         CNVShift        .... on
   Level shift para.    LevelShift      ....    0.2500
   Turn off err/grad.   ShiftErr        ....    0.0010
 Zerner damping         CNVZerner       .... off
 Static damping         CNVDamp         .... on
   Fraction old density DampFac         ....    0.7000
   Max. Damping (<1)    DampMax         ....    0.9800
   Min. Damping (>=0)   DampMin         ....    0.0000
   Turn off err/grad.   DampErr         ....    0.1000

SCF Procedure:
 Maximum # iterations   MaxIter         ....   125
 SCF integral mode      SCFMode         .... Direct
   Integral package                     .... SHARK and LIBINT hybrid scheme
 Reset frequency        DirectResetFreq ....    20
 Integral Threshold     Thresh          ....  1.000e-10 Eh
 Primitive CutOff       TCut            ....  1.000e-11 Eh

Convergence Tolerance:
 Convergence Check Mode ConvCheckMode   .... Total+1el-Energy
 Convergence forced     ConvForced      .... 1
 Energy Change          TolE            ....  1.000e-06 Eh
 1-El. energy change                    ....  1.000e-03 Eh
 Orbital Gradient       TolG            ....  5.000e-05
 Orbital Rotation angle TolX            ....  5.000e-05
 DIIS Error             TolErr          ....  1.000e-06

---------------------
INITIAL GUESS: MOREAD
---------------------
Guess MOs are being read from file: Diclofenac\Diclofenac_TPSS_STO-3G\Diclofenac_TPSS_STO-3G.orcainp.ges
Input Geometry matches current geometry (good)
Input basis set matches current basis set (good)
Occupation numbers will be reassigned to an Aufbau configuration
MOs were renormalized
MOs were reorthogonalized (Cholesky)
                      ------------------
                      INITIAL GUESS DONE (   0.0 sec)
                      ------------------
----------------------
INITIAL GUESS ORBITALS
----------------------
                      0         1         2         3         4         5   
                 -99.94788 -99.93781 -18.64182 -18.59608 -14.00998  -9.91389
                   2.00000   2.00000   2.00000   2.00000   2.00000   2.00000
                  --------  --------  --------  --------  --------  --------
  0O   1s        -0.000000 -0.000001 -0.993717 -0.001203  0.000208 -0.000017
  0O   2s         0.000001  0.000008 -0.027878  0.000270 -0.001288  0.000110
  0O   1pz        0.000000  0.000007 -0.002987 -0.000390 -0.000785  0.000076
  0O   1px        0.000000  0.000001 -0.000941 -0.000187 -0.000430  0.000042
  0O   1py        0.000000  0.000002  0.002392 -0.000230 -0.000463  0.000039
  1C   1s        -0.000000 -0.000000 -0.000608  0.000680  0.000021  0.000063
  1C   2s         0.000000  0.000001  0.005069 -0.007503 -0.000183  0.000017
  1C   1pz       -0.000000  0.000001 -0.001106  0.004805 -0.000062  0.000006
  1C   1px        0.000000  0.000000  0.000396  0.002602 -0.000052  0.000006
  1C   1py        0.000000  0.000001  0.005067  0.004450 -0.000116  0.000011
  2O   1s         0.000000 -0.000000 -0.001128  0.993814  0.000001 -0.000000
  2O   2s        -0.000000  0.000000 -0.000256  0.027691 -0.000013  0.000002
  2O   1pz       -0.000000  0.000000  0.000229  0.003655 -0.000005  0.000001
  2O   1px       -0.000000  0.000000  0.000005  0.001984 -0.000002  0.000000
  2O   1py       -0.000000  0.000000 -0.000520  0.003449 -0.000007  0.000001
  3C   1s        -0.000000 -0.000000  0.000041 -0.000029 -0.000011 -0.000023
  3C   2s         0.000003  0.000000 -0.000298  0.000245  0.000123 -0.000013
  3C   1pz        0.000001 -0.000000  0.000119 -0.000241  0.000055 -0.000006
  3C   1px       -0.000002  0.000000 -0.000056 -0.000170  0.000032  0.000002
  3C   1py       -0.000000  0.000001 -0.000543 -0.000422  0.000036 -0.000005
  4C   1s         0.000000 -0.000000  0.000014 -0.000002  0.000015 -0.000084
  4C   2s        -0.000000  0.000001 -0.000030  0.000028 -0.000286 -0.000120
  4C   1pz       -0.000001 -0.000002  0.000093  0.000015  0.000037 -0.000024
  4C   1px        0.000001  0.000000  0.000007 -0.000021  0.000274 -0.000030
  4C   1py       -0.000001  0.000001 -0.000055 -0.000008 -0.000255 -0.000089
  5C   1s         0.000000 -0.000000  0.000001  0.000001 -0.000006 -0.000003
  5C   2s        -0.000000  0.000000 -0.000010 -0.000007  0.000004 -0.000002
  5C   1pz        0.000000  0.000000 -0.000015 -0.000004  0.000016  0.000002
  5C   1px        0.000000 -0.000000  0.000013  0.000005  0.000044  0.000002
  5C   1py       -0.000000  0.000000 -0.000002  0.000002  0.000056  0.000001
  6C   1s        -0.000000 -0.000000  0.000000 -0.000000 -0.000003  0.000002
  6C   2s         0.000000  0.000000 -0.000002 -0.000000 -0.000009  0.000005
  6C   1pz       -0.000000  0.000000  0.000002  0.000001 -0.000003 -0.000000
  6C   1px       -0.000000 -0.000000  0.000001  0.000000 -0.000024 -0.000004
  6C   1py        0.000000 -0.000000  0.000000  0.000000  0.000031  0.000005
  7C   1s         0.000000 -0.000000  0.000000 -0.000000 -0.000003 -0.000064
  7C   2s        -0.000000  0.000000 -0.000002 -0.000000 -0.000039 -0.000136
  7C   1pz       -0.000000 -0.000002  0.000001 -0.000000 -0.000013  0.000002
  7C   1px        0.000000  0.000000  0.000000 -0.000000 -0.000034  0.000062
  7C   1py       -0.000000  0.000000 -0.000001 -0.000000 -0.000053 -0.000073
  8C   1s         0.000000  0.000001  0.000001  0.000000  0.000017 -0.000196
  8C   2s         0.000000 -0.000002 -0.000007 -0.000003 -0.000215  0.000217
  8C   1pz        0.000000  0.000012 -0.000011 -0.000001  0.000021  0.000082
  8C   1px       -0.000000 -0.000000  0.000011  0.000003  0.000209  0.000311
  8C   1py       -0.000000 -0.000002 -0.000001  0.000000 -0.000414 -0.000115
  9C   1s         0.000001  0.000002  0.000016  0.000001 -0.000537 -0.001424
  9C   2s        -0.000003 -0.000009 -0.000069 -0.000002  0.005349 -0.000168
  9C   1pz       -0.000002  0.000014  0.000074  0.000010 -0.000492 -0.000013
  9C   1px        0.000001 -0.000003  0.000048  0.000008 -0.003262 -0.000036
  9C   1py       -0.000000 -0.000008 -0.000016  0.000001  0.003806 -0.000427
 10N   1s         0.000006  0.000000  0.000124 -0.000001 -0.992672  0.000709
 10N   2s        -0.000054  0.000001 -0.001084  0.000013 -0.034498 -0.005934
 10N   1pz       -0.000033  0.000006  0.000893 -0.000006 -0.002710  0.000212
 10N   1px        0.000033 -0.000008  0.000568 -0.000001 -0.001156 -0.001595
 10N   1py        0.000011 -0.000007  0.000279  0.000010 -0.000800 -0.004354
 11C   1s        -0.000000  0.000000  0.000012 -0.000000 -0.000557  0.981575
 11C   2s        -0.000011  0.000008 -0.000063 -0.000002  0.005841  0.041720
 11C   1pz       -0.000007 -0.000006  0.000019 -0.000002  0.000144 -0.000145
 11C   1px        0.000008  0.000000  0.000029 -0.000000 -0.001819  0.000218
 11C   1py        0.000009 -0.000013  0.000033  0.000002 -0.005067  0.002370
 12C   1s        -0.000001  0.000055  0.000003 -0.000000  0.000009 -0.092211
 12C   2s         0.000004 -0.000368 -0.000004 -0.000000 -0.000142 -0.012222
 12C   1pz        0.000005  0.000269  0.000008 -0.000000  0.000112 -0.004473
 12C   1px       -0.000002 -0.000100  0.000026 -0.000000  0.000056  0.003398
 12C   1py        0.000004  0.000217  0.000014 -0.000001  0.000382  0.001977
 13Cl  1s        -0.000004 -0.994563 -0.000003  0.000000  0.000001 -0.000011
 13Cl  2s        -0.000000 -0.015584  0.000009 -0.000000  0.000000  0.000048
 13Cl  1pz       -0.000000 -0.000080  0.000005 -0.000000 -0.000009 -0.000042
 13Cl  1px        0.000000  0.000030 -0.000011  0.000000  0.000003  0.000013
 13Cl  1py       -0.000000 -0.000063 -0.000005  0.000000 -0.000006 -0.000040
 13Cl  3s         0.000001  0.001915 -0.000052  0.000001  0.000040  0.000562
 13Cl  2pz        0.000000  0.000168 -0.000027  0.000001  0.000059  0.000443
 13Cl  2px       -0.000000 -0.000063  0.000057 -0.000002 -0.000016 -0.000160
 13Cl  2py        0.000001  0.000135  0.000029 -0.000001  0.000047  0.000363
 14C   1s        -0.000000 -0.000001  0.000000 -0.000000 -0.000003  0.000521
 14C   2s        -0.000001  0.000019 -0.000006  0.000000 -0.000033  0.001142
 14C   1pz        0.000002 -0.000018 -0.000002  0.000000  0.000045  0.000155
 14C   1px       -0.000001  0.000012 -0.000002  0.000000 -0.000020 -0.000276
 14C   1py       -0.000001  0.000002  0.000006 -0.000000  0.000021 -0.000597
 15C   1s        -0.000001  0.000001  0.000000  0.000000 -0.000003 -0.000288
 15C   2s         0.000003 -0.000004  0.000000 -0.000000 -0.000005 -0.000232
 15C   1pz        0.000000  0.000000  0.000000  0.000000  0.000000 -0.000012
 15C   1px       -0.000002  0.000001  0.000000  0.000000 -0.000009  0.000056
 15C   1py       -0.000005  0.000005 -0.000000  0.000000 -0.000038  0.000181
 16C   1s         0.000001  0.000000  0.000000 -0.000000 -0.000001  0.000630
 16C   2s        -0.000019  0.000001 -0.000000  0.000000 -0.000050  0.001218
 16C   1pz       -0.000019  0.000002  0.000001  0.000000 -0.000051 -0.000156
 16C   1px        0.000010 -0.000001  0.000000 -0.000000  0.000035 -0.000091
 16C   1py       -0.000008  0.000001  0.000000 -0.000000  0.000020 -0.000704
 17C   1s        -0.000055  0.000001  0.000000 -0.000000  0.000013 -0.099457
 17C   2s         0.000364 -0.000004  0.000001  0.000000 -0.000227 -0.012580
 17C   1pz        0.000264  0.000005 -0.000004  0.000000 -0.000030  0.004342
 17C   1px       -0.000207 -0.000004 -0.000004  0.000000  0.000181 -0.001785
 17C   1py       -0.000119 -0.000002  0.000000 -0.000000  0.000424  0.003758
 18Cl  1s         0.994562 -0.000004  0.000000  0.000000 -0.000011 -0.000013
 18Cl  2s         0.015584 -0.000000 -0.000000 -0.000000  0.000035  0.000055
 18Cl  1pz       -0.000081 -0.000000  0.000000  0.000000 -0.000037  0.000045
 18Cl  1px        0.000061  0.000000  0.000000  0.000000 -0.000004 -0.000036
 18Cl  1py        0.000030  0.000000  0.000001  0.000000 -0.000066 -0.000026
 18Cl  3s        -0.001922 -0.000001  0.000005  0.000000 -0.000363  0.000616
 18Cl  2pz        0.000172  0.000000 -0.000003 -0.000000  0.000233 -0.000470
 18Cl  2px       -0.000130 -0.000001  0.000000 -0.000000  0.000023  0.000358
 18Cl  2py       -0.000063 -0.000001 -0.000005 -0.000000  0.000410  0.000215
 19H   1s        -0.000002 -0.000026  0.006325 -0.000119  0.003871 -0.000302
 20H   1s        -0.000000  0.000000 -0.000028 -0.000205  0.000007 -0.000001
 21H   1s        -0.000008  0.000000 -0.000056  0.000028 -0.000204  0.000024
 22H   1s         0.000000 -0.000000 -0.000001  0.000008  0.000021 -0.000000
 23H   1s         0.000000  0.000000  0.000000 -0.000000  0.000016 -0.000000
 24H   1s         0.000000  0.000000  0.000000  0.000000  0.000020  0.000016
 25H   1s        -0.000000 -0.000007 -0.000002  0.000000  0.000070 -0.000751
 26H   1s         0.000152 -0.000004 -0.000109 -0.000002  0.007369 -0.000530
 27H   1s         0.000001 -0.000033 -0.000000  0.000000  0.000018 -0.000071
 28H   1s         0.000001 -0.000001  0.000000 -0.000000  0.000015 -0.000019
 29H   1s         0.000030 -0.000001 -0.000000 -0.000000  0.000015 -0.000065
                      6         7         8         9        10        11   
                  -9.91012  -9.90984  -9.88022  -9.87389  -9.86523  -9.86383
                   2.00000   2.00000   2.00000   2.00000   2.00000   2.00000
                  --------  --------  --------  --------  --------  --------
  0O   1s        -0.000000  0.000006 -0.000624  0.000025 -0.000000  0.000000
  0O   2s         0.000003 -0.000039  0.005563 -0.000171  0.000000 -0.000003
  0O   1pz        0.000003 -0.000025  0.000198 -0.000108  0.000000 -0.000002
  0O   1px       -0.000000 -0.000017 -0.000569 -0.000039 -0.000000 -0.000001
  0O   1py        0.000000 -0.000016 -0.003690 -0.000061  0.000000 -0.000001
  1C   1s         0.000003 -0.000026 -0.991569  0.000216 -0.000000  0.000004
  1C   2s         0.000001 -0.000006 -0.035911 -0.000009  0.000000 -0.000000
  1C   1pz        0.000001 -0.000002  0.000627  0.000008  0.000000 -0.000000
  1C   1px        0.000000 -0.000002  0.000422  0.000014 -0.000000 -0.000000
  1C   1py        0.000000 -0.000005  0.000400  0.000021 -0.000000 -0.000000
  2O   1s        -0.000000  0.000000 -0.000576 -0.000002  0.000000  0.000000
  2O   2s         0.000000 -0.000001  0.007233  0.000012 -0.000000 -0.000000
  2O   1pz        0.000000 -0.000001  0.002106  0.000008 -0.000000 -0.000000
  2O   1px        0.000000 -0.000000  0.001151  0.000003  0.000000 -0.000000
  2O   1py        0.000000 -0.000000  0.002105  0.000004 -0.000000 -0.000000
  3C   1s        -0.000004  0.000001  0.011608 -0.000021 -0.000003 -0.000001
  3C   2s        -0.000005  0.000004  0.006238 -0.000324 -0.000001 -0.000000
  3C   1pz       -0.000002  0.000002 -0.004590 -0.000063 -0.000000  0.000000
  3C   1px        0.000003 -0.000003 -0.001376 -0.000118  0.000001 -0.000000
  3C   1py       -0.000000 -0.000003  0.001312 -0.000059  0.000000 -0.000000
  4C   1s        -0.000001  0.000010  0.000988  0.011623  0.000000  0.000002
  4C   2s        -0.000004  0.000019  0.000030  0.009081 -0.000000  0.000003
  4C   1pz       -0.000003  0.000008 -0.000058  0.000906  0.000000  0.000002
  4C   1px       -0.000002  0.000007  0.000094  0.002144 -0.000000  0.000001
  4C   1py       -0.000002  0.000011  0.000021  0.005422 -0.000000  0.000002
  5C   1s        -0.000000 -0.000001 -0.000071  0.000389 -0.000000 -0.000000
  5C   2s         0.000000 -0.000001 -0.000039 -0.000402  0.000000 -0.000000
  5C   1pz        0.000000 -0.000000  0.000036  0.000013 -0.000000 -0.000000
  5C   1px        0.000000  0.000000  0.000017  0.000107  0.000000  0.000000
  5C   1py        0.000000 -0.000002 -0.000022 -0.000110  0.000000 -0.000000
  6C   1s        -0.000000 -0.000002 -0.000000  0.000574 -0.000000  0.000000
  6C   2s        -0.000000 -0.000001 -0.000000  0.000147 -0.000000  0.000000
  6C   1pz       -0.000000 -0.000001 -0.000004 -0.000018 -0.000000  0.000000
  6C   1px        0.000000  0.000003  0.000001 -0.000147  0.000000  0.000000
  6C   1py       -0.000000 -0.000002  0.000002  0.000191 -0.000000  0.000000
  7C   1s        -0.000002  0.000019 -0.000002  0.000342  0.000000  0.000001
  7C   2s        -0.000002  0.000039 -0.000002 -0.000379 -0.000000  0.000000
  7C   1pz        0.000002  0.000012  0.000000  0.000012 -0.000000  0.000000
  7C   1px        0.000000 -0.000012  0.000001  0.000102 -0.000000  0.000000
  7C   1py       -0.000002  0.000023 -0.000000 -0.000085 -0.000000  0.000000
  8C   1s         0.000003 -0.000105  0.000004  0.008692 -0.000002 -0.000003
  8C   2s         0.000002 -0.000215  0.000007  0.009081 -0.000000 -0.000002
  8C   1pz       -0.000012 -0.000096  0.000004 -0.001377 -0.000000 -0.000002
  8C   1px        0.000002 -0.000119 -0.000004 -0.005641  0.000001 -0.000002
  8C   1py       -0.000003 -0.000093 -0.000004 -0.001082  0.000000 -0.000003
  9C   1s        -0.000097  0.000155 -0.000197 -0.991039  0.000001 -0.000180
  9C   2s        -0.000024 -0.000000 -0.000048 -0.040547  0.000000 -0.000002
  9C   1pz        0.000019 -0.000018 -0.000017 -0.000015  0.000003 -0.000006
  9C   1px       -0.000012 -0.000006  0.000004 -0.000894  0.000000  0.000005
  9C   1py       -0.000030  0.000069  0.000029  0.001260 -0.000001  0.000009
 10N   1s         0.000038 -0.000062  0.000039 -0.000723  0.000006 -0.000008
 10N   2s        -0.000198  0.000360 -0.000214  0.005653 -0.000024  0.000042
 10N   1pz        0.000174  0.000025  0.000156  0.000395 -0.000017 -0.000033
 10N   1px       -0.000187  0.000120  0.000101  0.003245 -0.000007  0.000031
 10N   1py       -0.000208  0.000367  0.000035 -0.003350 -0.000042  0.000026
 11C   1s         0.074484 -0.115674  0.000070 -0.001570  0.000141 -0.000196
 11C   2s        -0.003083  0.005601 -0.000005  0.000142  0.000267 -0.000268
 11C   1pz       -0.005000 -0.003165  0.000009 -0.000001 -0.000011  0.000007
 11C   1px        0.002397  0.002740  0.000005  0.000157  0.000044 -0.000036
 11C   1py       -0.003071  0.002873  0.000004 -0.000229  0.000152 -0.000141
 12C   1s        -0.249223 -0.954913  0.000020  0.000014  0.000635 -0.008423
 12C   2s        -0.010399 -0.037483  0.000001 -0.000056 -0.000199  0.008562
 12C   1pz       -0.000663 -0.000927  0.000002  0.000005 -0.000157 -0.000051
 12C   1px        0.000347  0.000133  0.000005  0.000005  0.000060  0.001662
 12C   1py       -0.000251 -0.001474  0.000003 -0.000017 -0.000153  0.005808
 13Cl  1s        -0.000042 -0.000178  0.000001 -0.000014  0.000001 -0.000005
 13Cl  2s         0.000132  0.000550 -0.000002  0.000034 -0.000004  0.000003
 13Cl  1pz       -0.000101 -0.000422  0.000001 -0.000024  0.000003  0.000002
 13Cl  1px        0.000036  0.000159 -0.000002  0.000008 -0.000001  0.000000
 13Cl  1py       -0.000088 -0.000339 -0.000001  0.000023  0.000002  0.000003
 13Cl  3s         0.001178  0.004779 -0.000011  0.000155 -0.000028 -0.000113
 13Cl  2pz        0.000907  0.003742 -0.000006  0.000181 -0.000024 -0.000051
 13Cl  2px       -0.000329 -0.001405  0.000012 -0.000062  0.000010  0.000002
 13Cl  2py        0.000777  0.003008  0.000004 -0.000161 -0.000015 -0.000092
 14C   1s         0.001190  0.007006 -0.000004  0.000177  0.004733 -0.988310
 14C   2s         0.002157  0.008653 -0.000002  0.000028  0.001030 -0.042372
 14C   1pz       -0.000097  0.000336 -0.000000 -0.000001  0.000367 -0.001369
 14C   1px       -0.000314 -0.001731 -0.000000 -0.000011 -0.000176  0.001058
 14C   1py       -0.001340 -0.005402  0.000001 -0.000015  0.000220  0.000368
 15C   1s        -0.000311  0.000427  0.000000  0.000006 -0.056390  0.071490
 15C   2s         0.000256 -0.000444  0.000000 -0.000002 -0.011218  0.011721
 15C   1pz        0.000119  0.000064  0.000000  0.000000 -0.004371 -0.004278
 15C   1px       -0.000078 -0.000021  0.000000 -0.000001  0.003468  0.001677
 15C   1py        0.000012  0.000082 -0.000000  0.000000  0.002187 -0.003904
 16C   1s        -0.006817  0.002296 -0.000000  0.000001  0.989333  0.008962
 16C   2s        -0.008621  0.002255 -0.000000 -0.000005  0.042324 -0.000593
 16C   1pz        0.000017 -0.000167  0.000000  0.000001 -0.001335  0.000426
 16C   1px        0.001444 -0.000292  0.000000  0.000005  0.000629 -0.000310
 16C   1py        0.005436 -0.001482 -0.000000  0.000003 -0.001054 -0.000112
 17C   1s         0.956521 -0.240095  0.000003  0.000013  0.008535 -0.000557
 17C   2s         0.037759 -0.008907 -0.000002  0.000032 -0.008626  0.000097
 17C   1pz       -0.001131 -0.000103 -0.000000 -0.000035  0.000185 -0.000175
 17C   1px        0.000944 -0.000066 -0.000001 -0.000017 -0.001680  0.000120
 17C   1py        0.000941 -0.000506  0.000001  0.000012 -0.005832  0.000022
 18Cl  1s         0.000180 -0.000049 -0.000000  0.000003  0.000004 -0.000001
 18Cl  2s        -0.000553  0.000149  0.000000 -0.000008 -0.000001  0.000004
 18Cl  1pz       -0.000410  0.000111  0.000000 -0.000004  0.000002  0.000003
 18Cl  1px        0.000325 -0.000087 -0.000000 -0.000000 -0.000002 -0.000002
 18Cl  1py        0.000197 -0.000048  0.000000 -0.000006 -0.000003 -0.000001
 18Cl  3s        -0.004706  0.001246  0.000001 -0.000045  0.000118  0.000031
 18Cl  2pz        0.003640 -0.000977 -0.000000  0.000036 -0.000053 -0.000026
 18Cl  2px       -0.002880  0.000766  0.000000  0.000001  0.000057  0.000020
 18Cl  2py       -0.001735  0.000426 -0.000001  0.000043  0.000081  0.000009
 19H   1s        -0.000010  0.000101  0.001231  0.000462 -0.000001  0.000009
 20H   1s         0.000001 -0.000001 -0.000036  0.000092  0.000000 -0.000000
 21H   1s         0.000014 -0.000012  0.000036  0.000099  0.000003 -0.000000
 22H   1s        -0.000000 -0.000000  0.000006  0.000105 -0.000000  0.000000
 23H   1s         0.000000 -0.000000 -0.000000  0.000062 -0.000000 -0.000000
 24H   1s        -0.000000 -0.000012 -0.000000  0.000097  0.000000 -0.000000
 25H   1s         0.000015  0.000561 -0.000001 -0.000171 -0.000001  0.000005
 26H   1s        -0.000249  0.000204 -0.000014  0.000690 -0.000060  0.000008
 27H   1s        -0.000114 -0.000135  0.000000  0.000001 -0.000132  0.008463
 28H   1s        -0.000083  0.000127  0.000000  0.000000  0.000629 -0.000756
 29H   1s         0.000165  0.000029  0.000000  0.000000 -0.008450  0.000017
                     12        13        14        15        16        17   
                  -9.85887  -9.84270  -9.84115  -9.83547  -9.83015  -9.82851
                   2.00000   2.00000   2.00000   2.00000   2.00000   2.00000
                  --------  --------  --------  --------  --------  --------
  0O   1s        -0.000000  0.000008  0.000046 -0.000001  0.000000  0.000001
  0O   2s         0.000000 -0.000026 -0.000379  0.000008 -0.000002 -0.000008
  0O   1pz        0.000000  0.000024 -0.000329  0.000003 -0.000001 -0.000003
  0O   1px        0.000000  0.000008 -0.000123  0.000001 -0.000000  0.000000
  0O   1py        0.000000  0.000001  0.000006  0.000004 -0.000001 -0.000004
  1C   1s        -0.000000  0.003092 -0.012724  0.000022 -0.000003  0.000033
  1C   2s         0.000000 -0.001782  0.005419 -0.000003  0.000001 -0.000003
  1C   1pz        0.000000 -0.001510  0.004439 -0.000004  0.000001  0.000007
  1C   1px        0.000000 -0.000315  0.001431 -0.000004 -0.000000 -0.000006
  1C   1py       -0.000000  0.000515 -0.001436 -0.000000 -0.000001  0.000010
  2O   1s         0.000000 -0.000007  0.000025  0.000000 -0.000000 -0.000001
  2O   2s        -0.000000  0.000059 -0.000149 -0.000001  0.000000  0.000004
  2O   1pz       -0.000000  0.000110 -0.000290 -0.000001  0.000000  0.000002
  2O   1px       -0.000000 -0.000017 -0.000084  0.000000 -0.000000  0.000002
  2O   1py        0.000000 -0.000064  0.000194 -0.000000 -0.000000  0.000002
  3C   1s        -0.000001  0.311965 -0.940371  0.001339 -0.000337 -0.000683
  3C   2s        -0.000000  0.019845 -0.038143 -0.000008  0.000035 -0.000128
  3C   1pz        0.000000  0.001412 -0.000478 -0.000009  0.000009 -0.000013
  3C   1px       -0.000000  0.004890  0.001694 -0.000043  0.000033 -0.000015
  3C   1py       -0.000000  0.000669  0.000639 -0.000054  0.000018  0.000100
  4C   1s        -0.000002 -0.939789 -0.313240  0.001283 -0.002429 -0.020835
  4C   2s        -0.000000 -0.041675 -0.006362  0.000333  0.000255  0.006286
  4C   1pz       -0.000000  0.000050 -0.001287  0.000029  0.000056  0.000397
  4C   1px        0.000000  0.000196 -0.005650  0.000140  0.000287  0.003165
  4C   1py       -0.000000  0.000221 -0.000926  0.000006 -0.000082 -0.003552
  5C   1s        -0.000000  0.023522  0.009149 -0.003605 -0.023042 -0.785639
  5C   2s        -0.000000  0.009432  0.002967 -0.000336 -0.002822 -0.038301
  5C   1pz        0.000000 -0.000427 -0.000117 -0.000036 -0.000262 -0.000947
  5C   1px        0.000000 -0.003659 -0.001005 -0.000072 -0.001115 -0.003797
  5C   1py       -0.000000  0.004390  0.001530 -0.000227 -0.000256 -0.001517
  6C   1s         0.000000 -0.000085  0.000473  0.001207  0.174666  0.589713
  6C   2s        -0.000000 -0.000553 -0.000146  0.001004  0.016272  0.030888
  6C   1pz       -0.000000  0.000050  0.000018  0.000062  0.000845 -0.001199
  6C   1px       -0.000000  0.000267  0.000057  0.000090  0.001513 -0.005345
  6C   1py       -0.000000 -0.000074  0.000024  0.000487  0.005685 -0.000732
  7C   1s        -0.000000  0.001524  0.000823 -0.066175 -0.972810  0.125194
  7C   2s        -0.000000  0.000194  0.000055 -0.011621 -0.042219 -0.000269
  7C   1pz       -0.000000 -0.000039 -0.000020  0.000473  0.000428  0.000547
  7C   1px        0.000000 -0.000168 -0.000079  0.003974  0.001471  0.001149
  7C   1py       -0.000000 -0.000033 -0.000019 -0.004488  0.001439  0.003311
  8C   1s        -0.000001  0.001082  0.001781  0.988682 -0.066757  0.004911
  8C   2s         0.000000 -0.000189  0.000035  0.042466  0.005953 -0.000629
  8C   1pz        0.000000  0.000016 -0.000003 -0.000239  0.000401 -0.000078
  8C   1px        0.000001  0.000019 -0.000023 -0.000317  0.003676 -0.000503
  8C   1py        0.000000  0.000144 -0.000010 -0.001623 -0.004576  0.000355
  9C   1s         0.000018 -0.012355 -0.004074  0.010045 -0.000970 -0.000132
  9C   2s         0.000000  0.007877  0.002400 -0.008569  0.000256 -0.000158
  9C   1pz        0.000001 -0.000860 -0.000268 -0.001389  0.000065 -0.000015
  9C   1px        0.000000 -0.001992 -0.000481 -0.005780  0.000254 -0.000093
  9C   1py       -0.000001 -0.005264 -0.001765 -0.000951  0.000095  0.000049
 10N   1s         0.000007  0.000014 -0.000012 -0.000019 -0.000007 -0.000005
 10N   2s        -0.000051 -0.000282 -0.000044  0.000264  0.000030  0.000026
 10N   1pz        0.000001 -0.000027  0.000074  0.000039  0.000010 -0.000004
 10N   1px       -0.000017 -0.000021 -0.000029  0.000196  0.000035 -0.000011
 10N   1py       -0.000039  0.000105 -0.000132  0.000032 -0.000018 -0.000047
 11C   1s         0.000429 -0.000109 -0.000065  0.000216 -0.000099  0.000005
 11C   2s        -0.000045  0.000058  0.000055 -0.000053  0.000036  0.000003
 11C   1pz        0.000008  0.000012  0.000017  0.000018  0.000010  0.000000
 11C   1px       -0.000052  0.000034  0.000001 -0.000030  0.000036 -0.000005
 11C   1py       -0.000161 -0.000055 -0.000051  0.000145 -0.000036 -0.000002
 12C   1s         0.000995 -0.000003  0.000002 -0.000150 -0.000005  0.000000
 12C   2s        -0.000333 -0.000004  0.000001  0.000089 -0.000005  0.000001
 12C   1pz        0.000012 -0.000004  0.000001  0.000038 -0.000003  0.000001
 12C   1px       -0.000099  0.000002  0.000002  0.000053  0.000001  0.000000
 12C   1py       -0.000327  0.000002  0.000004 -0.000011 -0.000003  0.000001
 13Cl  1s         0.000004  0.000001  0.000001  0.000009 -0.000000  0.000000
 13Cl  2s        -0.000011 -0.000001 -0.000002 -0.000022  0.000000 -0.000000
 13Cl  1pz        0.000004  0.000001  0.000001  0.000016 -0.000000  0.000000
 13Cl  1px        0.000001 -0.000000 -0.000001  0.000006 -0.000000 -0.000000
 13Cl  1py        0.000009 -0.000001 -0.000001 -0.000012  0.000000 -0.000000
 13Cl  3s        -0.000064 -0.000006 -0.000009 -0.000087  0.000001 -0.000000
 13Cl  2pz       -0.000030 -0.000005 -0.000005 -0.000122  0.000003 -0.000000
 13Cl  2px       -0.000003  0.000003  0.000010 -0.000041  0.000000  0.000001
 13Cl  2py       -0.000068  0.000004  0.000007  0.000083 -0.000002  0.000000
 14C   1s         0.073244 -0.000001  0.000001 -0.000003 -0.000000  0.000000
 14C   2s        -0.005691  0.000000 -0.000001 -0.000015  0.000001 -0.000000
 14C   1pz       -0.004305  0.000001  0.000000  0.000005 -0.000000 -0.000000
 14C   1px        0.001776 -0.000001 -0.000001  0.000012 -0.000002  0.000000
 14C   1py       -0.003646  0.000000  0.000001  0.000011 -0.000001  0.000000
 15C   1s         0.986870 -0.000002 -0.000002  0.000001 -0.000000 -0.000000
 15C   2s         0.040569 -0.000000 -0.000000 -0.000000 -0.000000  0.000000
 15C   1pz        0.000077 -0.000000  0.000000  0.000001 -0.000000  0.000000
 15C   1px       -0.000365 -0.000000 -0.000000  0.000000 -0.000000  0.000000
 15C   1py       -0.000977 -0.000000 -0.000000  0.000000 -0.000000 -0.000000
 16C   1s         0.057260  0.000001 -0.000003  0.000003 -0.000000  0.000000
 16C   2s        -0.006354 -0.000001  0.000000  0.000000 -0.000000 -0.000000
 16C   1pz        0.004448 -0.000000 -0.000000 -0.000001 -0.000000 -0.000000
 16C   1px       -0.003427  0.000001  0.000000 -0.000002  0.000000  0.000000
 16C   1py       -0.001877  0.000001 -0.000000  0.000001  0.000000  0.000000
 17C   1s         0.000955  0.000007 -0.000000 -0.000057  0.000004  0.000000
 17C   2s        -0.000209 -0.000001 -0.000002 -0.000004  0.000000 -0.000000
 17C   1pz        0.000023 -0.000003 -0.000002  0.000030 -0.000004  0.000000
 17C   1px       -0.000081 -0.000002 -0.000002  0.000026 -0.000004  0.000001
 17C   1py       -0.000238  0.000007  0.000002 -0.000013  0.000003  0.000000
 18Cl  1s         0.000004  0.000001 -0.000000 -0.000000  0.000000  0.000000
 18Cl  2s        -0.000012 -0.000002  0.000001  0.000000 -0.000000 -0.000000
 18Cl  1pz       -0.000004 -0.000001  0.000000  0.000000 -0.000000 -0.000000
 18Cl  1px        0.000005  0.000000 -0.000000  0.000000 -0.000000  0.000000
 18Cl  1py        0.000008 -0.000001  0.000000  0.000001 -0.000000 -0.000000
 18Cl  3s        -0.000068 -0.000010  0.000005  0.000001 -0.000000 -0.000001
 18Cl  2pz        0.000033  0.000008 -0.000004 -0.000001  0.000000  0.000000
 18Cl  2px       -0.000038 -0.000001  0.000002 -0.000001  0.000000 -0.000000
 18Cl  2py       -0.000059  0.000010 -0.000003 -0.000004  0.000000  0.000001
 19H   1s        -0.000001  0.000076  0.000603 -0.000028  0.000006  0.000026
 20H   1s        -0.000000 -0.002833  0.008301 -0.000021 -0.000005  0.000078
 21H   1s         0.000000 -0.002701  0.008312 -0.000015  0.000001  0.000033
 22H   1s         0.000000 -0.000325 -0.000105 -0.000022  0.000322  0.006871
 23H   1s         0.000000  0.000073  0.000035 -0.000112 -0.001654 -0.005190
 24H   1s         0.000000  0.000028  0.000020  0.000721  0.008409 -0.000913
 25H   1s        -0.000002  0.000045  0.000017 -0.008532  0.000403 -0.000023
 26H   1s        -0.000004  0.000147 -0.000112 -0.000018  0.000004  0.000007
 27H   1s        -0.000481  0.000000  0.000000  0.000000  0.000000  0.000000
 28H   1s        -0.008441  0.000000  0.000000 -0.000000  0.000000  0.000000
 29H   1s        -0.000346  0.000000  0.000000 -0.000000  0.000000  0.000000
                     18        19        20        21        22        23   
                  -9.82776  -9.05591  -9.04629  -6.86158  -6.85234  -6.84486
                   2.00000   2.00000   2.00000   2.00000   2.00000   2.00000
                  --------  --------  --------  --------  --------  --------
  0O   1s        -0.000001 -0.000002 -0.000025  0.000000  0.000009 -0.000002
  0O   2s         0.000008  0.000013  0.000195 -0.000001 -0.000064  0.000018
  0O   1pz        0.000003  0.000007  0.000167 -0.000000 -0.000040  0.000009
  0O   1px       -0.000000  0.000008  0.000024 -0.000002 -0.000024  0.000010
  0O   1py        0.000003  0.000004  0.000051 -0.000000 -0.000019  0.000006
  1C   1s        -0.000017 -0.000000 -0.000008  0.000000  0.000003 -0.000000
  1C   2s        -0.000001  0.000002  0.000019 -0.000000 -0.000010  0.000003
  1C   1pz       -0.000009 -0.000001  0.000015  0.000000 -0.000003 -0.000001
  1C   1px        0.000006  0.000001  0.000007 -0.000000 -0.000008  0.000002
  1C   1py       -0.000010  0.000001  0.000016 -0.000000 -0.000011  0.000001
  2O   1s         0.000000  0.000000 -0.000001 -0.000000  0.000000  0.000000
  2O   2s        -0.000004 -0.000000  0.000006  0.000000 -0.000002 -0.000001
  2O   1pz       -0.000001 -0.000000  0.000002  0.000000 -0.000001 -0.000000
  2O   1px       -0.000002 -0.000000  0.000002  0.000000  0.000000 -0.000000
  2O   1py       -0.000002 -0.000000  0.000003  0.000000 -0.000001 -0.000000
  3C   1s         0.001220 -0.000005 -0.000006  0.000002  0.000001 -0.000003
  3C   2s         0.000046  0.000053  0.000006 -0.000023 -0.000000  0.000060
  3C   1pz       -0.000001  0.000023 -0.000003 -0.000011 -0.000000  0.000025
  3C   1px       -0.000075 -0.000038  0.000004  0.000015  0.000000 -0.000045
  3C   1py       -0.000048 -0.000013  0.000026  0.000001 -0.000007 -0.000020
  4C   1s         0.016461  0.000005 -0.000009 -0.000001  0.000001  0.000004
  4C   2s        -0.004416 -0.000003  0.000013  0.000001  0.000008 -0.000007
  4C   1pz       -0.000279 -0.000016 -0.000056  0.000005  0.000029 -0.000019
  4C   1px       -0.002297  0.000019  0.000004 -0.000006  0.000002  0.000024
  4C   1py        0.002679 -0.000013  0.000028  0.000004 -0.000001 -0.000018
  5C   1s         0.603127  0.000000 -0.000000 -0.000000 -0.000000  0.000000
  5C   2s         0.018461 -0.000005  0.000003  0.000002 -0.000001 -0.000007
  5C   1pz       -0.000926  0.000004  0.000002 -0.000001 -0.000001  0.000005
  5C   1px       -0.004196  0.000002 -0.000004 -0.000000  0.000001  0.000002
  5C   1py       -0.000217 -0.000003  0.000001  0.000001 -0.000000 -0.000004
  6C   1s         0.777103 -0.000000 -0.000000  0.000000 -0.000000 -0.000000
  6C   2s         0.026472  0.000000  0.000001 -0.000000 -0.000000  0.000000
  6C   1pz        0.000629 -0.000000  0.000001 -0.000000 -0.000001 -0.000000
  6C   1px        0.002571 -0.000000 -0.000000  0.000000  0.000000 -0.000000
  6C   1py        0.000634  0.000001 -0.000000 -0.000000  0.000000  0.000001
  7C   1s         0.125505  0.000000 -0.000005 -0.000000  0.000000  0.000000
  7C   2s        -0.001516 -0.000002  0.000004  0.000001  0.000010 -0.000003
  7C   1pz        0.000698 -0.000000 -0.000045  0.000000  0.000021  0.000000
  7C   1px        0.001469  0.000001  0.000006 -0.000000 -0.000009  0.000002
  7C   1py        0.004234 -0.000001  0.000011  0.000000  0.000001 -0.000001
  8C   1s         0.009777  0.000002  0.000077 -0.000000 -0.000016  0.000002
  8C   2s        -0.000519  0.000001 -0.000052 -0.000002  0.000005  0.000000
  8C   1pz       -0.000036  0.000005  0.000291 -0.000003 -0.000104  0.000007
  8C   1px       -0.000416 -0.000002 -0.000002  0.000001 -0.000017  0.000001
  8C   1py        0.000626 -0.000009 -0.000059  0.000003  0.000045 -0.000014
  9C   1s         0.001117  0.000028  0.000135 -0.000005 -0.000030  0.000023
  9C   2s        -0.000097 -0.000062 -0.000236  0.000015  0.000073 -0.000078
  9C   1pz       -0.000021 -0.000055  0.000339  0.000030 -0.000102 -0.000080
  9C   1px       -0.000162  0.000023 -0.000070 -0.000005  0.000030  0.000031
  9C   1py        0.000180 -0.000002 -0.000199 -0.000003  0.000111 -0.000004
 10N   1s         0.000015  0.000153  0.000007 -0.000008 -0.000027  0.000182
 10N   2s        -0.000090 -0.001274  0.000061  0.000223  0.000100 -0.001704
 10N   1pz       -0.000007 -0.000709  0.000159  0.000070 -0.000171 -0.000835
 10N   1px       -0.000035  0.000713 -0.000181 -0.000172  0.000146  0.000775
 10N   1py        0.000076  0.000246 -0.000124 -0.000207  0.000100  0.000250
 11C   1s         0.000017 -0.000047  0.000051  0.000031 -0.000027 -0.000020
 11C   2s        -0.000009 -0.000251  0.000185  0.000311 -0.000260 -0.000736
 11C   1pz       -0.000001 -0.000064 -0.000059  0.000179  0.000183  0.000066
 11C   1px       -0.000001  0.000089  0.000000 -0.000173 -0.000036 -0.000104
 11C   1py        0.000009  0.000105 -0.000148 -0.000147  0.000263 -0.000679
 12C   1s        -0.000002 -0.000039  0.002258  0.000026 -0.001706 -0.000015
 12C   2s         0.000002  0.000123 -0.008753 -0.000108  0.011774  0.000206
 12C   1pz        0.000001  0.000120  0.006027 -0.000121 -0.007707  0.000137
 12C   1px        0.000001 -0.000058 -0.002247  0.000054  0.002881 -0.000078
 12C   1py       -0.000000  0.000073  0.004869 -0.000090 -0.006277 -0.000012
 13Cl  1s        -0.000000 -0.000045 -0.376168 -0.000002 -0.004888 -0.000000
 13Cl  2s         0.000000  0.000127  1.051225  0.000006  0.013851  0.000000
 13Cl  1pz        0.000000  0.000000  0.008422 -0.000195 -0.743093 -0.000060
 13Cl  1px        0.000000 -0.000000 -0.003169  0.000067  0.275956  0.000065
 13Cl  1py        0.000000 -0.000001  0.006578 -0.000169 -0.587464  0.000305
 13Cl  3s         0.000000  0.000020  0.052584 -0.000020 -0.005240 -0.000003
 13Cl  2pz       -0.000000  0.000008  0.004321 -0.000024 -0.040289 -0.000011
 13Cl  2px       -0.000000 -0.000001 -0.001615  0.000008  0.014972  0.000008
 13Cl  2py       -0.000000  0.000014  0.003453 -0.000022 -0.031920  0.000024
 14C   1s        -0.000000 -0.000013  0.000020  0.000010 -0.000017  0.000000
 14C   2s        -0.000000 -0.000022  0.000428  0.000019 -0.000396  0.000001
 14C   1pz        0.000000  0.000035 -0.000261 -0.000047  0.000350  0.000007
 14C   1px        0.000000 -0.000025  0.000192  0.000035 -0.000203  0.000003
 14C   1py        0.000000 -0.000011  0.000110  0.000019  0.000039  0.000007
 15C   1s         0.000000 -0.000040  0.000040  0.000023 -0.000023  0.000020
 15C   2s         0.000000  0.000112 -0.000125 -0.000076  0.000084 -0.000237
 15C   1pz        0.000000  0.000034  0.000033 -0.000006 -0.000001 -0.000105
 15C   1px        0.000000 -0.000053  0.000011  0.000038 -0.000032  0.000101
 15C   1py        0.000000 -0.000117  0.000131  0.000130 -0.000131  0.000092
 16C   1s         0.000000 -0.000008  0.000011  0.000010 -0.000009  0.000001
 16C   2s         0.000000 -0.000423  0.000023  0.000383 -0.000023  0.000949
 16C   1pz        0.000000 -0.000284  0.000030  0.000375 -0.000041 -0.000316
 16C   1px       -0.000000  0.000135 -0.000013 -0.000222  0.000018  0.000250
 16C   1py       -0.000000 -0.000180  0.000022  0.000094 -0.000032 -0.000291
 17C   1s        -0.000001 -0.002259  0.000041  0.001705 -0.000027  0.000025
 17C   2s         0.000000  0.008656 -0.000125 -0.011650  0.000105 -0.000108
 17C   1pz        0.000001  0.005930  0.000117 -0.007573 -0.000113 -0.002189
 17C   1px        0.000001 -0.004641 -0.000084  0.005969  0.000087 -0.000911
 17C   1py       -0.000001 -0.002673 -0.000017  0.003521  0.000043 -0.002958
 18Cl  1s        -0.000000  0.376157 -0.000046  0.004869 -0.000001 -0.000329
[...]
  0-1A  -> 17-1A    5.201864   41955.9   238.3   0.001270317   0.00997  -0.06005  -0.07864   0.01331
  0-1A  -> 18-1A    5.228714   42172.4   237.1   0.001254867   0.00980  -0.05697   0.07074  -0.03933
  0-1A  -> 19-1A    5.263171   42450.3   235.6   0.045886018   0.35586   0.41990  -0.37788   0.19169
  0-1A  -> 20-1A    5.430801   43802.4   228.3   0.000083649   0.00063   0.00010  -0.01040  -0.02281
  0-1A  -> 21-1A    5.451487   43969.2   227.4   0.000005086   0.00004   0.00454   0.00225  -0.00353
  0-1A  -> 22-1A    5.525875   44569.2   224.4   0.027596927   0.20385  -0.39950  -0.12259  -0.17094
  0-1A  -> 23-1A    5.627371   45387.8   220.3   0.007729094   0.05606   0.07333  -0.02740  -0.22346
  0-1A  -> 24-1A    5.834869   47061.4   212.5   0.002077665   0.01453   0.08693  -0.07877   0.02780
  0-1A  -> 25-1A    6.052759   48818.8   204.8   0.005955093   0.04016  -0.03035   0.19681   0.02238
  0-1A  -> 26-1A    6.085558   49083.3   203.7   0.001700665   0.01141  -0.02454  -0.10377  -0.00602
  0-1A  -> 27-1A    6.131210   49451.5   202.2   0.005201139   0.03463   0.15419  -0.09713  -0.03763
  0-1A  -> 28-1A    6.183137   49870.4   200.5   0.018317779   0.12092   0.19523  -0.22007   0.18541
  0-1A  -> 29-1A    6.240276   50331.2   198.7   0.002964604   0.01939   0.11341  -0.07908  -0.01659
  0-1A  -> 30-1A    6.272404   50590.4   197.7   0.000841644   0.00548  -0.07018   0.00344  -0.02324

----------------------------------------------------------------------------------------------------
                     ABSORPTION SPECTRUM VIA TRANSITION VELOCITY DIPOLE MOMENTS    
----------------------------------------------------------------------------------------------------
     Transition      Energy     Energy  Wavelength fosc(P2)      P2        PX        PY        PZ   
                      (eV)      (cm-1)    (nm)                 (au**2)    (au)      (au)      (au)  
----------------------------------------------------------------------------------------------------
  0-1A  ->  1-1A    2.674517   21571.4   463.6   0.000033938   0.00001  -0.00109   0.00090   0.00173
  0-1A  ->  2-1A    2.732875   22042.1   453.7   0.000006734   0.00000   0.00077   0.00041   0.00050
  0-1A  ->  3-1A    3.333629   26887.5   371.9   0.000062003   0.00001  -0.00155   0.00091   0.00286
  0-1A  ->  4-1A    3.475616   28032.7   356.7   0.000042594   0.00001   0.00241  -0.00144  -0.00055
  0-1A  ->  5-1A    3.534326   28506.3   350.8   0.000001858   0.00000   0.00011   0.00057  -0.00016
  0-1A  ->  6-1A    3.631763   29292.1   341.4   0.000338376   0.00007  -0.00018   0.00681   0.00462
  0-1A  ->  7-1A    3.808671   30719.0   325.5   0.001493327   0.00031  -0.01246   0.00974   0.00795
  0-1A  ->  8-1A    4.124687   33267.8   300.6   0.000024338   0.00001   0.00207   0.00110   0.00023
  0-1A  ->  9-1A    4.282165   34538.0   289.5   0.001175305   0.00028  -0.01361   0.00920   0.00276
  0-1A  -> 10-1A    4.309720   34760.2   287.7   0.000097530   0.00002   0.00391   0.00281   0.00005
  0-1A  -> 11-1A    4.393476   35435.8   282.2   0.000032951   0.00001  -0.00244  -0.00137   0.00038
  0-1A  -> 12-1A    4.437384   35789.9   279.4   0.031727238   0.00776  -0.00516   0.08771  -0.00638
  0-1A  -> 13-1A    4.649586   37501.4   266.7   0.000000510   0.00000  -0.00003   0.00036   0.00004
  0-1A  -> 14-1A    4.829133   38949.6   256.7   0.007221280   0.00192   0.03057   0.03006   0.00917
  0-1A  -> 15-1A    5.003291   40354.3   247.8   0.000178229   0.00005  -0.00114   0.00080   0.00687
  0-1A  -> 16-1A    5.086416   41024.7   243.8   0.000381177   0.00011   0.00092   0.00121   0.01023
  0-1A  -> 17-1A    5.201864   41955.9   238.3   0.000335244   0.00010   0.00127  -0.00643   0.00729
  0-1A  -> 18-1A    5.228714   42172.4   237.1   0.000034499   0.00001   0.00291  -0.00122  -0.00010
  0-1A  -> 19-1A    5.263171   42450.3   235.6   0.003244739   0.00094  -0.00775   0.02738  -0.01147
  0-1A  -> 20-1A    5.430801   43802.4   228.3   0.000010937   0.00000  -0.00059  -0.00013   0.00171
  0-1A  -> 21-1A    5.451487   43969.2   227.4   0.000001556   0.00000   0.00026   0.00025   0.00058
  0-1A  -> 22-1A    5.525875   44569.2   224.4   0.003708855   0.00113   0.01377   0.02552   0.01700
  0-1A  -> 23-1A    5.627371   45387.8   220.3   0.000075698   0.00002   0.00278   0.00014   0.00397
  0-1A  -> 24-1A    5.834869   47061.4   212.5   0.000430142   0.00014  -0.00649   0.00839  -0.00509
  0-1A  -> 25-1A    6.052759   48818.8   204.8   0.000921984   0.00031  -0.00948  -0.01382  -0.00517
  0-1A  -> 26-1A    6.085558   49083.3   203.7   0.000889851   0.00030   0.00898   0.01261   0.00767
  0-1A  -> 27-1A    6.131210   49451.5   202.2   0.000429988   0.00015  -0.00472   0.01104  -0.00106
  0-1A  -> 28-1A    6.183137   49870.4   200.5   0.003858920   0.00132  -0.01155   0.03162  -0.01348
  0-1A  -> 29-1A    6.240276   50331.2   198.7   0.000282313   0.00010  -0.00403   0.00652  -0.00620
  0-1A  -> 30-1A    6.272404   50590.4   197.7   0.001770368   0.00061  -0.01918   0.00694   0.01401

------------------------------------------------------------------------------------------
                     CD SPECTRUM VIA TRANSITION ELECTRIC DIPOLE MOMENTS    
------------------------------------------------------------------------------------------
     Transition      Energy     Energy  Wavelength    R        MX        MY        MZ   
                      (eV)      (cm-1)    (nm)   (1e40*cgs)   (au)      (au)      (au)  
------------------------------------------------------------------------------------------
  0-1A  ->  1-1A    2.674517   21571.4   463.6    0.26442  -0.00273   0.00303  -0.01503
  0-1A  ->  2-1A    2.732875   22042.1   453.7   -0.01090   0.00178  -0.00226  -0.00239
  0-1A  ->  3-1A    3.333629   26887.5   371.9    0.38905   0.00856  -0.00398  -0.01820
  0-1A  ->  4-1A    3.475616   28032.7   356.7   -0.41807   0.00411   0.03021  -0.00188
  0-1A  ->  5-1A    3.534326   28506.3   350.8    0.00114  -0.00097  -0.00059   0.00128
  0-1A  ->  6-1A    3.631763   29292.1   341.4    0.17189   0.01109   0.01245  -0.05868
  0-1A  ->  7-1A    3.808671   30719.0   325.5   31.02391   0.02906  -0.06893  -0.15129
  0-1A  ->  8-1A    4.124687   33267.8   300.6   -0.21252  -0.00064   0.02261   0.00037
  0-1A  ->  9-1A    4.282165   34538.0   289.5    3.43841  -0.04774   0.00529  -0.05833
  0-1A  -> 10-1A    4.309720   34760.2   287.7   -1.94786   0.00641   0.03732   0.00369
  0-1A  -> 11-1A    4.393476   35435.8   282.2    0.16417   0.00276  -0.00274  -0.00153
  0-1A  -> 12-1A    4.437384   35789.9   279.4  -36.78507  -0.00192  -0.04923  -0.05052
  0-1A  -> 13-1A    4.649586   37501.4   266.7    0.01042  -0.00187   0.00333   0.00086
  0-1A  -> 14-1A    4.829133   38949.6   256.7    1.88799   0.07428  -0.01080  -0.06264
  0-1A  -> 15-1A    5.003291   40354.3   247.8   -0.53996   0.16260   0.34698   0.33398
  0-1A  -> 16-1A    5.086416   41024.7   243.8   -3.43890  -0.15397   0.02536   0.10835
  0-1A  -> 17-1A    5.201864   41955.9   238.3   -2.01670  -0.07685   0.02093   0.09831
  0-1A  -> 18-1A    5.228714   42172.4   237.1    0.22297   0.03450   0.00876  -0.02218
  0-1A  -> 19-1A    5.263171   42450.3   235.6    4.43771  -0.07367  -0.03782   0.03771
  0-1A  -> 20-1A    5.430801   43802.4   228.3    0.28288   0.01964   0.00314   0.02496
  0-1A  -> 21-1A    5.451487   43969.2   227.4   -0.00777  -0.00041   0.00510  -0.00195
  0-1A  -> 22-1A    5.525875   44569.2   224.4   13.63317   0.09826   0.03004  -0.08201
  0-1A  -> 23-1A    5.627371   45387.8   220.3    1.42727   0.07007  -0.01471   0.03834
  0-1A  -> 24-1A    5.834869   47061.4   212.5   -0.34479   0.01159  -0.00429  -0.02208
  0-1A  -> 25-1A    6.052759   48818.8   204.8    1.64100  -0.00496  -0.01696  -0.01310
  0-1A  -> 26-1A    6.085558   49083.3   203.7   -0.76531  -0.02634  -0.00786  -0.02673
  0-1A  -> 27-1A    6.131210   49451.5   202.2   -2.01474  -0.00299  -0.04523  -0.00908
  0-1A  -> 28-1A    6.183137   49870.4   200.5   -2.17469   0.04278  -0.03069  -0.05659
  0-1A  -> 29-1A    6.240276   50331.2   198.7   -1.59547  -0.01002  -0.05158  -0.02664
  0-1A  -> 30-1A    6.272404   50590.4   197.7   -1.25598   0.02134   0.24548  -0.14275

------------------------------------------------------------------------------------------
                     CD SPECTRUM VIA TRANSITION VELOCITY DIPOLE MOMENTS    
------------------------------------------------------------------------------------------
     Transition      Energy     Energy  Wavelength    R        MX        MY        MZ   
                      (eV)      (cm-1)    (nm)   (1e40*cgs)   (au)      (au)      (au)  
------------------------------------------------------------------------------------------
  0-1A  ->  1-1A    2.674517   21571.4   463.6   -0.09771  -0.00273   0.00303  -0.01503
  0-1A  ->  2-1A    2.732875   22042.1   453.7   -0.00354   0.00178  -0.00226  -0.00239
  0-1A  ->  3-1A    3.333629   26887.5   371.9   -0.26508   0.00856  -0.00398  -0.01820
  0-1A  ->  4-1A    3.475616   28032.7   356.7   -0.12007   0.00411   0.03021  -0.00188
  0-1A  ->  5-1A    3.534326   28506.3   350.8   -0.00234  -0.00097  -0.00059   0.00128
  0-1A  ->  6-1A    3.631763   29292.1   341.4   -0.66468   0.01109   0.01245  -0.05868
  0-1A  ->  7-1A    3.808671   30719.0   325.5   -7.53514   0.02906  -0.06893  -0.15129
  0-1A  ->  8-1A    4.124687   33267.8   300.6    0.07340  -0.00064   0.02261   0.00037
  0-1A  ->  9-1A    4.282165   34538.0   289.5    1.61132  -0.04774   0.00529  -0.05833
  0-1A  -> 10-1A    4.309720   34760.2   287.7    0.38745   0.00641   0.03732   0.00369
  0-1A  -> 11-1A    4.393476   35435.8   282.2   -0.01048   0.00276  -0.00274  -0.00153
  0-1A  -> 12-1A    4.437384   35789.9   279.4  -11.52291  -0.00192  -0.04923  -0.05052
  0-1A  -> 13-1A    4.649586   37501.4   266.7    0.00355  -0.00187   0.00333   0.00086
  0-1A  -> 14-1A    4.829133   38949.6   256.7    3.64515   0.07428  -0.01080  -0.06264
  0-1A  -> 15-1A    5.003291   40354.3   247.8    6.11800   0.16260   0.34698   0.33398
  0-1A  -> 16-1A    5.086416   41024.7   243.8    2.51269  -0.15397   0.02536   0.10835
  0-1A  -> 17-1A    5.201864   41955.9   238.3    1.19632  -0.07685   0.02093   0.09831
  0-1A  -> 18-1A    5.228714   42172.4   237.1    0.22526   0.03450   0.00876  -0.02218
  0-1A  -> 19-1A    5.263171   42450.3   235.6   -2.18625  -0.07367  -0.03782   0.03771
  0-1A  -> 20-1A    5.430801   43802.4   228.3    0.07210   0.01964   0.00314   0.02496
  0-1A  -> 21-1A    5.451487   43969.2   227.4    0.00014  -0.00041   0.00510  -0.00195
  0-1A  -> 22-1A    5.525875   44569.2   224.4    1.68488   0.09826   0.03004  -0.08201
  0-1A  -> 23-1A    5.627371   45387.8   220.3    0.78598   0.07007  -0.01471   0.03834
  0-1A  -> 24-1A    5.834869   47061.4   212.5    0.00252   0.01159  -0.00429  -0.02208
  0-1A  -> 25-1A    6.052759   48818.8   204.8    0.74017  -0.00496  -0.01696  -0.01310
  0-1A  -> 26-1A    6.085558   49083.3   203.7   -1.13987  -0.02634  -0.00786  -0.02673
  0-1A  -> 27-1A    6.131210   49451.5   202.2   -0.99533  -0.00299  -0.04523  -0.00908
  0-1A  -> 28-1A    6.183137   49870.4   200.5   -1.45654   0.04278  -0.03069  -0.05659
  0-1A  -> 29-1A    6.240276   50331.2   198.7   -0.26861  -0.01002  -0.05158  -0.02664
  0-1A  -> 30-1A    6.272404   50590.4   197.7   -1.44125   0.02134   0.24548  -0.14275

Total run time:       30.936 sec

           *** ORCA-CIS/TD-DFT FINISHED WITHOUT ERROR ***
-----------------------
CIS/TD-DFT TOTAL ENERGY
-----------------------

    E(SCF)  =  -1646.650227517 Eh
    DE(CIS) =      0.098286708 Eh (Root  1)
    ----------------------------- ---------
    E(tot)  =  -1646.551940809 Eh


Maximum memory used throughout the entire CIS-calculation: 90.6 MB
=> NOW LEAVING ORCA_CIS

-------------------------   --------------------
FINAL SINGLE POINT ENERGY     -1646.551940809098
-------------------------   --------------------


------------------------------------------------------------------------------
                              ORCA PROPERTY CALCULATIONS
------------------------------------------------------------------------------

GBWName                                 ... Diclofenac\Diclofenac_TPSS_STO-3G\Diclofenac_TPSS_STO-3G.orcainp.gbw
Number of atoms                         ...     30
Number of basis functions               ...    114
Max core memory                         ...   1024 MB

Electric properties:
Dipole moment                           ... YES
Quadrupole moment                       ...  NO
Static polarizability (Dipole/Dipole)   ...  NO
Static polarizability (Dipole/Quad.)    ...  NO
Static polarizability (Quad./Quad.)     ...  NO
Static polarizability (Velocity)        ...  NO

Atomic electric properties:
Dipole moment                           ...  NO
Quadrupole moment                       ...  NO
Static polarizability                   ...  NO

Choice of electric origin               ... Center of mass
Position of electric origin             ...     9.216377     4.197887    -2.588900

General magnetic properties:
Magnetizability                         ...  NO

EPR properties:
g-Tensor (aka g-matrix)                 ...  NO
Zero-Field splitting spin-orbit         ...  NO
Zero-field splitting spin-spin          ...  NO
Hyperfine couplings                     ...  NO (   0 nuclei)
Quadrupole couplings                    ...  NO (   0 nuclei)
Contact density                         ...  NO (   0 nuclei)

NMR properties:
Chemical shifts                         ...  NO (   0 nuclei)
Spin-rotation constants                 ...  NO (   0 nuclei)
Spin-spin couplings                     ...  NO (   0 nuclei,    0 pairs)

Choice of magnetic origin               ... GIAO
Position of magnetic origin             ...     0.000000     0.000000     0.000000

Properties with geometric perturbations:
SCF Hessian                             ...  NO
IR spectrum                             ...  NO
VCD spectrum                            ...  NO
X-ray spectroscopy properties:
SCF XES/XAS/RIXS spectra                ...  NO


-------------
DIPOLE MOMENT
-------------

Method             : SCF
Type of density    : Electron Density
Multiplicity       :   1
Irrep              :   0
Energy             : -1646.6502275166747040 Eh
Relativity type    : 
Basis              : AO
                                X                 Y                 Z
Electronic contribution:     -4.004924664       8.792613454      -1.547620320
Nuclear contribution   :      5.212898990      -6.894085002       3.546740700
                        -----------------------------------------
Total Dipole Moment    :      1.207974326       1.898528452       1.999120380
                        -----------------------------------------
Magnitude (a.u.)       :      3.009999094
Magnitude (Debye)      :      7.650809677



--------------------
Rotational spectrum 
--------------------
 
Rotational constants in cm-1:             0.013461             0.007428             0.007299 
Rotational constants in MHz :           403.535980           222.689034           218.829591 

Dipole components along the rotational axes: 
x,y,z [a.u.] :     2.404423    -0.182345     1.801554 
x,y,z [Debye]:     6.111557    -0.463484     4.579186 

 

Dipole moment calculation done in   0.0 sec 

Maximum memory used throughout the entire PROP-calculation: 8.5 MB

--------------------------------
SUGGESTED CITATIONS FOR THIS RUN
--------------------------------

Below you find a list of papers that are relevant to this ORCA run
We neither can nor want to force you to cite these papers, but we appreciate if you do
You receive ORCA, which is the product of decades of hard work by many enthusiastic individuals, for free
The only thing we kindly ask in return is that you cite our papers,
We deeply appreciate it, if you show your appreciation for ORCA by not just citing the generic ORCA reference.

Please note that relegating all ORCA citations to the supporting information does *not* help us.
SI sections are not indexed - citations you put there will not count into any citation statistics
But we need these citations in order to attract the funding resources that allow us to do what we are doing

Therefore, if you are a happy ORCA user, please consider citing a few of the papers listed below in the main body of your paper

In addition to the list printed below, the program has created the file Diclofenac\Diclofenac_TPSS_STO-3G\Diclofenac_TPSS_STO-3G.orcainp.bibtex that contains the list in bibtex format
You can import this file easily into all common literature databanks and citation aid programs


List of essential papers. We consider these as the minimum necessary citations

  1. Neese,F.
     Software update: the ORCA program system, version 5.0
     WIRES Comput. Molec. Sci., 2022 12(1)e1606
     doi.org/10.1002/wcms.1606

List of papers to cite with high priority. The work reported in these papers was absolutely
necessary for this run to complete.
Our perspective: the developers of density functionals and basis sets usually get cited in chemistry papers
Good! But without the algorithms to do something with them, the functionals or basis sets would not do anything.
Hence, in our opinion, the algorithm design and method developments papers are equally worthy of getting cited

  1. Neese,F.; Olbrich,G.
     Efficient use of the resolution of the identity approximation in time-dependent density functional calculations with hybrid density functionals
     Chem. Phys. Lett., 2002 362 170-178
     doi.org/10.1016/s0009-2614(02)01053-9
  2. Neese,F.
     An improvement of the resolution of the identity approximation for the formation of the Coulomb matrix
     J. Comp. Chem., 2003 24(14)1740-1747
     doi.org/10.1002/jcc.10318
  3. Garcia-Rates,M.; Neese,F.
     Effect of the Solute Cavity on the Solvation Energy and its Derivatives within the Framework of the Gaussian Charge Scheme
     J. Comput. Chem., 2020 41 922-939
     doi.org/10.1002/jcc.26139
  4. Neese,F.
     The SHARK Integral Generation and Digestion System
     J. Comp. Chem., 2022  1-16
     doi.org/10.1002/jcc.26942

List of suggested additional citations. These are papers that are important in the 'surrounding' of 
of this run, or papers that preceded the highly important papers. If you like your results we are grateful for a citation.

  1. Neese,F.
     The ORCA program system
     WIRES Comput. Molec. Sci., 2012 2(1)73-78
     doi.org/10.1002/wcms.81
  2. Neese,F.
     Software update: the ORCA program system, version 4.0
     WIRES Comput. Molec. Sci., 2018 8(1)1-6
     doi.org/10.1002/wcms.1327
  3. Neese,F.; Wennmohs,F.; Becker,U.; Riplinger,C.
     The ORCA quantum chemistry program package
     J. Chem. Phys., 2020 152 Art. No. L224108
     doi.org/10.1063/5.0004608

List of optional additional citations

  1. Neese,F.
     Approximate second-order SCF convergence for spin unrestricted wavefunctions
     Chem. Phys. Lett., 2000 325(1-3)93-98
     doi.org/10.1016/s0009-2614(00)00662-x

Timings for individual modules:

Sum of individual times          ...       35.142 sec (=   0.586 min)
Startup calculation              ...        0.890 sec (=   0.015 min)   2.5 %
SCF iterations                   ...        3.118 sec (=   0.052 min)   8.9 %
Property integrals               ...        0.082 sec (=   0.001 min)   0.2 %
Property calculations            ...        0.069 sec (=   0.001 min)   0.2 %
CIS module                       ...       30.983 sec (=   0.516 min)  88.2 %
                             ****ORCA TERMINATED NORMALLY****
TOTAL RUN TIME: 0 days 0 hours 0 minutes 35 seconds 265 msec
