
                                 *****************
                                 * O   R   C   A *
                                 *****************

                                            #,                                       
                                            ###                                      
                                            ####                                     
                                            #####                                    
                                            ######                                   
                                           ########,                                 
                                     ,,################,,,,,                         
                               ,,#################################,,                 
                          ,,##########################################,,             
                       ,#########################################, ''#####,          
                    ,#############################################,,   '####,        
                  ,##################################################,,,,####,       
                ,###########''''           ''''###############################       
              ,#####''   ,,,,##########,,,,          '''####'''          '####       
            ,##' ,,,,###########################,,,                        '##       
           ' ,,###''''                  '''############,,,                           
         ,,##''                                '''############,,,,        ,,,,,,###''
      ,#''                                            '''#######################'''  
     '                                                          ''''####''''         
             ,#######,   #######,   ,#######,      ##                                
            ,#'     '#,  ##    ##  ,#'     '#,    #''#        ,####,   ,####,        
            ##       ##  ##   ,#'  ##            #'  '#       #'       #'  '#        
            ##       ##  #######   ##           ,######,      #####,   #    #        
            '#,     ,#'  ##    ##  '#,     ,#' ,#      #,     #,   #   #,  ,#        
             '#######'   ##     ##  '#######'  #'      '#     '####' # '####'        



                #########################################################
                #                        -***-                          #
                #          Department of theory and spectroscopy        #
                #                                                       #
                #                      Frank Neese                      #
                #                                                       #
                #     Directorship, Architecture, Infrastructure        #
                #                    SHARK, DRIVERS                     #
                #        Core code/Algorithms in most modules           #
                #                                                       #
                #        Max Planck Institute fuer Kohlenforschung      #
                #                Kaiser Wilhelm Platz 1                 #
                #                 D-45470 Muelheim/Ruhr                 #
                #                      Germany                          #
                #                                                       #
                #                  All rights reserved                  #
                #                        -***-                          #
                #########################################################


                         Program Version 6.0.0  -   RELEASE   -


 With contributions from (in alphabetic order):
   Daniel Aravena         : Magnetic Suceptibility
   Michael Atanasov       : Ab Initio Ligand Field Theory (pilot matlab implementation)
   Alexander A. Auer      : GIAO ZORA, VPT2 properties, NMR spectrum
   Ute Becker             : All parallelization in ORCA, NUMFREQ, NUMCALC
   Giovanni Bistoni       : ED, misc. LED, open-shell LED, HFLD
   Martin Brehm           : Molecular dynamics
   Dmytro Bykov           : pre 5.0 version of the SCF Hessian
   Marcos Casanova-Páez   : Triplet and SCS-CIS(D). UHF-(DLPNO)-IP/EA/STEOM-CCSD. UHF-CVS-IP/STEOM-CCSD
   Vijay G. Chilkuri      : MRCI spin determinant printing, contributions to CSF-ICE
   Pauline Colinet        : FMM embedding
   Dipayan Datta          : RHF DLPNO-CCSD density
   Achintya Kumar Dutta   : EOM-CC, STEOM-CC
   Nicolas Foglia         : Exact transition moments, OPA infrastructure, MCD improvements
   Dmitry Ganyushin       : Spin-Orbit,Spin-Spin,Magnetic field MRCI
   Miquel Garcia          : C-PCM and meta-GGA Hessian, CCSD/C-PCM, Gaussian charge scheme
   Tiago L. C. Gouveia    : GS-ROHF, GS-ROCIS
   Yang Guo               : DLPNO-NEVPT2, F12-NEVPT2, CIM, IAO-localization
   Andreas Hansen         : Spin unrestricted coupled pair/coupled cluster methods
   Ingolf Harden          : AUTO-CI MPn and infrastructure 
   Benjamin Helmich-Paris : MC-RPA, TRAH-(SCF,CASSCF), AVAS, COSX integrals, SCF dyn. polar.
   Lee Huntington         : MR-EOM, pCC
   Robert Izsak           : Overlap fitted RIJCOSX, COSX-SCS-MP3, EOM
   Riya Kayal             : Wick's Theorem for AUTO-CI, AUTO-CI UHF-CCSDT
   Emily Kempfer          : AUTO-CI, RHF CISDT and CCSDT
   Christian Kollmar      : KDIIS, OOCD, Brueckner-CCSD(T), CCSD density, CASPT2, CASPT2-K, improved NEVPT2
   Axel Koslowski         : Symmetry handling
   Simone Kossmann        : Meta GGA functionals, TD-DFT gradient, OOMP2, (MP2 Hessian; deprecated post 5.0)
   Lucas Lang             : DCDCAS
   Marvin Lechner         : AUTO-CI (C++ implementation), FIC-MRCC
   Spencer Leger          : CASSCF response
   Dagmar Lenk            : GEPOL surface, SMD, ORCA-2-JSON
   Dimitrios Liakos       : Extrapolation schemes; Compound Job, initial MDCI parallelization
   Dimitrios Manganas     : Further ROCIS development; embedding schemes. LFT, Crystal Embedding
   Dimitrios Pantazis     : SARC Basis sets
   Anastasios Papadopoulos: AUTO-CI, single reference methods and gradients
   Taras Petrenko         : pre 6.0 DFT Hessian and TD-DFT gradient, (ASA, deprecated), ECA, 1-Electron XAS/XES, NRVS
   Peter Pinski           : DLPNO-MP2, DLPNO-MP2 Gradient
   Christoph Reimann      : Effective Core Potentials
   Marius Retegan         : Local ZFS, SOC
   Christoph Riplinger    : Optimizer, TS searches, QM/MM, DLPNO-CCSD(T), (RO)-DLPNO pert. Triples
   Michael Roemelt        : Original ROCIS implementation
   Masaaki Saitow         : Open-shell DLPNO-CCSD energy and density
   Barbara Sandhoefer     : DKH picture change effects
   Kantharuban Sivalingam : CASSCF convergence/infrastructure, NEVPT2 and variants, FIC-MRCI
   Bernardo de Souza      : ESD, SOC TD-DFT
   Georgi Stoychev        : AutoAux, RI-MP2 NMR, DLPNO-MP2 response, X2C
   Van Anh Tran           : RI-MP2 g-tensors
   Willem Van den Heuvel  : Paramagnetic NMR
   Zikuan Wang            : NOTCH, Electric field optimization 
   Frank Wennmohs         : Technical directorship and infrastructure
   Hang Xu                : AUTO-CI-Response properties 


 We gratefully acknowledge several colleagues who have allowed us to
 interface, adapt or use parts of their codes:
   Stefan Grimme, W. Hujo, H. Kruse, P. Pracht,  : VdW corrections, initial TS optimization,
                  C. Bannwarth, S. Ehlert,         DFT functionals, gCP, sTDA/sTD-DF
                  L. Wittmann, M. Mueller
   Ed Valeev, F. Pavosevic, A. Kumar             : LibInt (2-el integral package), F12 methods
   Garnet Chan, S. Sharma, J. Yang, R. Olivares  : DMRG
   Ulf Ekstrom                                   : XCFun DFT Library
   Mihaly Kallay                                 : mrcc  (arbitrary order and MRCC methods)
   Frank Weinhold                                : gennbo (NPA and NBO analysis)
   Simon Mueller                                 : openCOSMO-RS
   Christopher J. Cramer and Donald G. Truhlar   : smd solvation model
   Lars Goerigk                                  : TD-DFT with DH, B97 family of functionals
   V. Asgeirsson, H. Jonsson                     : NEB implementation
   FAccTs GmbH                                   : IRC, NEB, NEB-TS, DLPNO-Multilevel, CI-OPT
                                                   MM, QMMM, 2- and 3-layer-ONIOM, Crystal-QMMM,
                                                   LR-CPCM, SF, NACMEs, symmetry and pop. for TD-DFT,
                                                   nearIR, NL-DFT gradient (VV10), updates on ESD,
                                                   ML-optimized integration grids, MBIS, APM,
                                                   GOAT, DOCKER, SOLVATOR, interface openCOSMO-RS
   S Lehtola, MJT Oliveira, MAL Marques          : LibXC Library
   Liviu Ungur et al                             : ANISO software


 Your calculation uses the libint2 library for the computation of 2-el integrals
 For citations please refer to: http://libint.valeyev.net

 Your ORCA version has been built with support for libXC version: 6.2.2
 For citations please refer to: https://libxc.gitlab.io

 This ORCA versions uses:
   CBLAS   interface :  Fast vector & matrix operations
   LAPACKE interface :  Fast linear algebra routines
   Shared memory     :  Shared parallel matrices


Warning: RI is on but no J-basis has been assigned. Assigning Def2/J (nothing to worry about!)
================================================================================

----- Orbital basis set information -----
Your calculation utilizes the basis: STO-3G
   H-Ne       : W. J. Hehre, R. F. Stewart and J. A. Pople, J. Chem. Phys. 2657 (1969).
   Na-Ar      : W. J. Hehre, R. Ditchfield, R. F. Stewart and J. A. Pople, J. Chem. Phys. 2769 (1970).
   K,Ca,Ga-Kr : W. J. Pietro, B. A. Levy, W. J. Hehre and R. F. Stewart, J. Am. Chem. Soc. 19, 2225 (1980).
   Sc-Zn,Y-Cd : W. J. Pietro and W. J. Hehre, J. Comp. Chem. 4, 241 (1983).

----- AuxJ basis set information -----
Your calculation utilizes the auxiliary basis: def2/J
   F. Weigend, Phys. Chem. Chem. Phys. 8, 1057 (2006).

================================================================================
                                        WARNINGS
                       Please study these warnings very carefully!
================================================================================


WARNING: Geometry Optimization
  ===> : Switching off AutoStart
         For restart on a previous wavefunction, please use MOREAD

================================================================================
                                       INPUT FILE
================================================================================
NAME = Diclofenac\Diclofenac_TPSS_STO-3G\Diclofenac_TPSS_STO-3G.orcainp
|  1> # ORCA input file
|  2> # 
|  3> !TPSS STO-3G Opt CPCM(WATER)
|  4> * xyz 0 1
|  5>    O        3.20532         0.77222        -3.48165
|  6>    C        3.01992        -0.42363        -2.87260
|  7>    O        2.60439        -1.40765        -3.47515
|  8>    C        3.32048        -0.40706        -1.39156
|  9>    C        4.77373        -0.12881        -1.08244
| 10>    C        5.66943        -1.21342        -1.10651
| 11>    C        7.03233        -1.02123        -0.89021
| 12>    C        7.51453         0.25274        -0.62393
| 13>    C        6.63498         1.33431        -0.58478
| 14>    C        5.26576         1.17391        -0.86041
| 15>    N        4.37299         2.29124        -0.86707
| 16>    C        4.78516         3.66554        -0.98266
| 17>    C        5.63181         4.12934        -2.01264
| 18>   Cl        6.08405         3.13842        -3.35906
| 19>    C        6.11423         5.44479        -2.01214
| 20>    C        5.70652         6.34622        -1.03224
| 21>    C        4.79176         5.94154        -0.06385
| 22>    C        4.33591         4.61788        -0.04136
| 23>   Cl        3.21047         4.17011         1.19560
| 24>    H        3.58943         1.44889        -2.88309
| 25>    H        3.04405        -1.38942        -0.98093
| 26>    H        2.64728         0.30494        -0.90399
| 27>    H        5.30989        -2.22054        -1.31624
| 28>    H        7.71565        -1.86518        -0.93248
| 29>    H        8.57673         0.41196        -0.45771
| 30>    H        7.04962         2.31347        -0.36106
| 31>    H        3.79458         2.21395        -0.02113
| 32>    H        6.80603         5.77305        -2.78574
| 33>    H        6.08452         7.36622        -1.03898
| 34>    H        4.44479         6.65940         0.67650
| 35> *
| 36> 
| 37>                          ****END OF INPUT****
================================================================================

                       *****************************
                       * Geometry Optimization Run *
                       *****************************

Geometry optimization settings:
Update method            Update   .... BFGS
Choice of coordinates    CoordSys .... (2022) Redundant Internals
Initial Hessian          InHess   .... Almloef's Model
Max. no of cycles        MaxIter  .... 90

Convergence Tolerances:
Energy Change            TolE     ....  5.0000e-06 Eh
Max. Gradient            TolMAXG  ....  3.0000e-04 Eh/bohr
RMS Gradient             TolRMSG  ....  1.0000e-04 Eh/bohr
Max. Displacement        TolMAXD  ....  4.0000e-03 bohr
RMS Displacement         TolRMSD  ....  2.0000e-03 bohr
Strict Convergence                .... False

------------------------------------------------------------------------------
                        ORCA OPTIMIZATION COORDINATE SETUP
------------------------------------------------------------------------------

The optimization will be done in redundant internal coordinates (2022)
Making redundant internal coordinates   ...  (2022 redundants) done
Evaluating the initial hessian          ...  (Almloef) done
Evaluating the coordinates              ...  done
Calculating the B-matrix                .... done
Calculating the G-matrix                .... done
Diagonalizing the G-matrix              .... done
Small eigenvalue found = 5.495e-03
Small eigenvalue found = 1.592e-02
Small eigenvalue found = 2.020e-02
The first mode is                       ....   66
The number of degrees of freedom        ....   84

    -----------------------------------------------------------------
                    Redundant Internal Coordinates


    -----------------------------------------------------------------
         Definition                    Initial Value    Approx d2E/dq
    -----------------------------------------------------------------
      1. B(C   1,O   0)                  1.3548         0.636942   
      2. B(O   2,C   1)                  1.2264         1.020724   
      3. B(C   3,C   1)                  1.5113         0.400110   
      4. B(C   4,C   3)                  1.5116         0.399709   
      5. B(C   5,C   4)                  1.4069         0.587286   
      6. B(C   6,C   5)                  1.3933         0.617321   
      7. B(C   7,C   6)                  1.3880         0.629506   
      8. B(C   8,C   7)                  1.3946         0.614306   
      9. B(C   9,C   8)                  1.4059         0.589417   
     10. B(C   9,C   4)                  1.4101         0.580257   
     11. B(N  10,C   9)                  1.4302         0.482746   
     12. B(C  11,N  10)                  1.4394         0.466681   
     13. B(C  12,C  11)                  1.4117         0.577006   
     14. B(Cl 13,C  12)                  1.7318         0.399338   
     15. B(C  14,C  12)                  1.4011         0.599787   
     16. B(C  15,C  14)                  1.3925         0.619124   
     17. B(C  16,C  15)                  1.3922         0.619677   
     18. B(C  17,C  16)                  1.4001         0.601959   
     19. B(C  17,C  11)                  1.4124         0.575479   
     20. B(Cl 18,C  17)                  1.7312         0.400232   
     21. B(H  19,O   0)                  0.9817         0.480150   
     22. B(H  19,N  10)                  2.3212         0.003502   
     23. B(H  20,C   3)                  1.1000         0.347076   
     24. B(H  21,C   3)                  1.0945         0.354234   
     25. B(H  22,C   5)                  1.0897         0.360436   
     26. B(H  23,C   6)                  1.0867         0.364463   
     27. B(H  24,C   7)                  1.0869         0.364288   
     28. B(H  25,C   8)                  1.0866         0.364606   
     29. B(H  26,N  10)                  1.0277         0.405482   
     30. B(H  26,Cl 18)                  2.3766         0.007157   
     31. B(H  27,C  14)                  1.0885         0.362110   
     32. B(H  28,C  15)                  1.0878         0.363009   
     33. B(H  29,C  16)                  1.0880         0.362703   
     34. A(C   1,O   0,H  19)          112.8226         0.366784   
     35. A(O   0,C   1,O   2)          122.2589         0.471280   
     36. A(O   0,C   1,C   3)          113.8073         0.400825   
     37. A(O   2,C   1,C   3)          123.8939         0.435950   
     38. A(C   4,C   3,H  20)          109.2471         0.325964   
     39. A(C   4,C   3,H  21)          112.3646         0.327061   
     40. A(C   1,C   3,H  20)          107.8210         0.326018   
     41. A(C   1,C   3,H  21)          108.7456         0.327115   
     42. A(H  20,C   3,H  21)          105.0755         0.288421   
     43. A(C   1,C   3,C   4)          113.1797         0.371943   
     44. A(C   5,C   4,C   9)          119.5227         0.424785   
     45. A(C   3,C   4,C   9)          122.5281         0.396779   
     46. A(C   3,C   4,C   5)          117.8192         0.397619   
     47. A(C   4,C   5,C   6)          120.9164         0.429524   
     48. A(C   6,C   5,H  22)          118.6918         0.352706   
     49. A(C   4,C   5,H  22)          120.3798         0.349746   
     50. A(C   5,C   6,C   7)          119.7515         0.434917   
     51. A(C   5,C   6,H  23)          120.1269         0.353370   
     52. A(C   7,C   6,H  23)          120.1213         0.354542   
     53. A(C   8,C   7,H  24)          119.8986         0.353049   
     54. A(C   6,C   7,H  24)          120.2214         0.354513   
     55. A(C   6,C   7,C   8)          119.8759         0.434534   
     56. A(C   7,C   8,C   9)          121.3491         0.429426   
     57. A(C   9,C   8,H  25)          120.9853         0.350640   
     58. A(C   7,C   8,H  25)          117.6432         0.353101   
     59. A(C   8,C   9,N  10)          121.3141         0.408701   
     60. A(C   4,C   9,N  10)          120.2110         0.407570   
     61. A(C   4,C   9,C   8)          118.4311         0.425061   
     62. A(C   9,N  10,C  11)          124.5774         0.389750   
     63. A(C   9,N  10,H  26)          106.7825         0.340099   
     64. A(C  11,N  10,H  26)          107.4016         0.338183   
     65. A(C  12,C  11,C  17)          117.0973         0.422821   
     66. A(N  10,C  11,C  17)          119.9453         0.404548   
     67. A(N  10,C  11,C  12)          122.9571         0.404737   
     68. A(Cl 13,C  12,C  14)          116.5871         0.416913   
     69. A(C  11,C  12,C  14)          120.9775         0.425961   
     70. A(C  11,C  12,Cl 13)          122.4030         0.414052   
     71. A(C  15,C  14,H  27)          119.4061         0.353157   
     72. A(C  12,C  14,H  27)          120.1134         0.351267   
     73. A(C  12,C  14,C  15)          120.4783         0.431377   
     74. A(C  16,C  15,H  28)          120.3428         0.353359   
     75. A(C  14,C  15,H  28)          120.0595         0.353305   
     76. A(C  14,C  15,C  16)          119.5831         0.433915   
     77. A(C  15,C  16,H  29)          119.4092         0.353308   
     78. A(C  15,C  16,C  17)          119.9922         0.431727   
     79. A(C  17,C  16,H  29)          120.5961         0.351579   
     80. A(C  16,C  17,Cl 18)          117.8813         0.417348   
     81. A(C  11,C  17,Cl 18)          120.5682         0.414021   
     82. A(C  11,C  17,C  16)          121.5462         0.426035   
     83. D(C   3,C   1,O   0,H  19)      5.4575         0.029886   
     84. D(O   2,C   1,O   0,H  19)   -176.7577         0.029886   
     85. D(C   4,C   3,C   1,O   0)    -64.5811         0.011880   
     86. D(H  21,C   3,C   1,O   0)     61.0391         0.011880   
     87. D(H  20,C   3,C   1,O   2)     -3.2758         0.011880   
     88. D(H  20,C   3,C   1,O   0)    174.4674         0.011880   
     89. D(C   4,C   3,C   1,O   2)    117.6757         0.011880   
     90. D(C   5,C   4,C   3,H  21)    152.1542         0.011858   
     91. D(C   9,C   4,C   3,H  20)   -148.2199         0.011858   
     92. D(C   9,C   4,C   3,C   1)     91.6388         0.011858   
     93. D(C   5,C   4,C   3,H  20)     35.9509         0.011858   
     94. D(C   5,C   4,C   3,C   1)    -84.1904         0.011858   
     95. D(H  22,C   5,C   4,C   3)     -1.5999         0.023725   
     96. D(C   6,C   5,C   4,C   3)    177.1212         0.023725   
     97. D(C   6,C   5,C   4,C   9)      1.1621         0.023725   
     98. D(H  22,C   5,C   4,C   9)   -177.5589         0.023725   
     99. D(H  23,C   6,C   5,H  22)      0.0370         0.026356   
    100. D(H  23,C   6,C   5,C   4)   -178.7053         0.026356   
    101. D(C   7,C   6,C   5,H  22)    179.8719         0.026356   
    102. D(C   7,C   6,C   5,C   4)      1.1297         0.026356   
    103. D(H  24,C   7,C   6,H  23)      0.0644         0.027473   
    104. D(H  24,C   7,C   6,C   5)   -179.7706         0.027473   
    105. D(C   8,C   7,C   6,H  23)    179.3269         0.027473   
    106. D(C   8,C   7,C   6,C   5)     -0.5081         0.027473   
    107. D(H  25,C   8,C   7,H  24)     -1.4733         0.026084   
    108. D(H  25,C   8,C   7,C   6)    179.2618         0.026084   
    109. D(C   9,C   8,C   7,H  24)    176.8201         0.026084   
    110. D(C   9,C   8,C   7,C   6)     -2.4448         0.026084   
    111. D(N  10,C   9,C   4,C   3)      2.6341         0.023133   
    112. D(C   8,C   9,C   4,C   5)     -3.9796         0.023133   
    113. D(C   8,C   9,C   4,C   3)   -179.7404         0.023133   
    114. D(N  10,C   9,C   8,H  25)      0.5064         0.023906   
    115. D(N  10,C   9,C   8,C   7)   -177.7301         0.023906   
    116. D(C   4,C   9,C   8,H  25)   -177.0918         0.023906   
    117. D(C   4,C   9,C   8,C   7)      4.6717         0.023906   
    118. D(N  10,C   9,C   4,C   5)    178.3949         0.023133   
    119. D(H  26,N  10,C   9,C   8)   -107.4504         0.019940   
    120. D(H  26,N  10,C   9,C   4)     70.1055         0.019940   
    121. D(C  11,N  10,C   9,C   8)     18.5125         0.019940   
    122. D(C  11,N  10,C   9,C   4)   -163.9316         0.019940   
    123. D(C  17,C  11,N  10,H  26)     -2.2690         0.018602   
    124. D(C  17,C  11,N  10,C   9)   -127.9682         0.018602   
    125. D(C  12,C  11,N  10,H  26)    177.9402         0.018602   
    126. D(C  12,C  11,N  10,C   9)     52.2409         0.018602   
    127. D(C  14,C  12,C  11,C  17)      6.5887         0.022863   
    128. D(C  14,C  12,C  11,N  10)   -173.6148         0.022863   
    129. D(Cl 13,C  12,C  11,C  17)   -171.2697         0.022863   
    130. D(Cl 13,C  12,C  11,N  10)      8.5267         0.022863   
    131. D(H  27,C  14,C  12,Cl 13)     -5.0999         0.024799   
    132. D(H  27,C  14,C  12,C  11)    176.9220         0.024799   
    133. D(C  15,C  14,C  12,Cl 13)    174.3526         0.024799   
    134. D(C  15,C  14,C  12,C  11)     -3.6256         0.024799   
    135. D(H  28,C  15,C  14,H  27)     -0.4765         0.026520   
    136. D(H  28,C  15,C  14,C  12)   -179.9328         0.026520   
    137. D(C  16,C  15,C  14,H  27)    178.1377         0.026520   
    138. D(C  16,C  15,C  14,C  12)     -1.3186         0.026520   
    139. D(H  29,C  16,C  15,H  28)      1.0447         0.026570   
    140. D(H  29,C  16,C  15,C  14)   -177.5655         0.026570   
    141. D(C  17,C  16,C  15,H  28)   -178.3772         0.026570   
    142. D(C  17,C  16,C  15,C  14)      3.0125         0.026570   
    143. D(Cl 18,C  17,C  11,N  10)     -3.9322         0.022737   
    144. D(C  16,C  17,C  11,C  12)     -4.9004         0.022737   
    145. D(C  16,C  17,C  11,N  10)    175.2967         0.022737   
    146. D(Cl 18,C  17,C  16,H  29)      0.0162         0.024989   
    147. D(Cl 18,C  17,C  16,C  15)    179.4312         0.024989   
    148. D(C  11,C  17,C  16,H  29)   -179.2326         0.024989   
    149. D(C  11,C  17,C  16,C  15)      0.1823         0.024989   
    150. D(Cl 18,C  17,C  11,C  12)    175.8707         0.022737   
    -----------------------------------------------------------------

Number of atoms                         .... 30
Number of degrees of freedom            .... 150


         *************************************************************
         *                GEOMETRY OPTIMIZATION CYCLE   1            *
         *************************************************************
---------------------------------
CARTESIAN COORDINATES (ANGSTROEM)
---------------------------------
  O      3.205320    0.772220   -3.481650
  C      3.019920   -0.423630   -2.872600
  O      2.604390   -1.407650   -3.475150
  C      3.320480   -0.407060   -1.391560
  C      4.773730   -0.128810   -1.082440
  C      5.669430   -1.213420   -1.106510
  C      7.032330   -1.021230   -0.890210
  C      7.514530    0.252740   -0.623930
  C      6.634980    1.334310   -0.584780
  C      5.265760    1.173910   -0.860410
  N      4.372990    2.291240   -0.867070
  C      4.785160    3.665540   -0.982660
  C      5.631810    4.129340   -2.012640
  Cl     6.084050    3.138420   -3.359060
  C      6.114230    5.444790   -2.012140
  C      5.706520    6.346220   -1.032240
  C      4.791760    5.941540   -0.063850
  C      4.335910    4.617880   -0.041360
  Cl     3.210470    4.170110    1.195600
  H      3.589430    1.448890   -2.883090
  H      3.044050   -1.389420   -0.980930
  H      2.647280    0.304940   -0.903990
  H      5.309890   -2.220540   -1.316240
  H      7.715650   -1.865180   -0.932480
  H      8.576730    0.411960   -0.457710
  H      7.049620    2.313470   -0.361060
  H      3.794580    2.213950   -0.021130
  H      6.806030    5.773050   -2.785740
  H      6.084520    7.366220   -1.038980
  H      4.444790    6.659400    0.676500

----------------------------
CARTESIAN COORDINATES (A.U.)
----------------------------
  NO LB      ZA    FRAG     MASS         X           Y           Z
   0 O     8.0000    0    15.999    6.057177    1.459284   -6.579365
   1 C     6.0000    0    12.011    5.706822   -0.800545   -5.428427
   2 O     8.0000    0    15.999    4.921584   -2.660073   -6.567082
   3 C     6.0000    0    12.011    6.274798   -0.769232   -2.629667
   4 C     6.0000    0    12.011    9.021042   -0.243416   -2.045515
   5 C     6.0000    0    12.011   10.713670   -2.293031   -2.091001
   6 C     6.0000    0    12.011   13.289178   -1.929845   -1.682253
   7 C     6.0000    0    12.011   14.200404    0.477609   -1.179057
   8 C     6.0000    0    12.011   12.538295    2.521480   -1.105074
   9 C     6.0000    0    12.011    9.950844    2.218368   -1.625939
  10 N     7.0000    0    14.007    8.263753    4.329816   -1.638525
  11 C     6.0000    0    12.011    9.042642    6.926867   -1.856958
  12 C     6.0000    0    12.011   10.642579    7.803322   -3.803338
  13 Cl   17.0000    0    35.453   11.497188    5.930754   -6.347703
  14 C     6.0000    0    12.011   11.554220   10.289162   -3.802394
  15 C     6.0000    0    12.011   10.783760   11.992618   -1.950651
  16 C     6.0000    0    12.011    9.055114   11.227883   -0.120659
  17 C     6.0000    0    12.011    8.193682    8.726529   -0.078159
  18 Cl   17.0000    0    35.453    6.066909    7.880366    2.259357
  19 H     1.0000    0     1.008    6.783040    2.738005   -5.448251
  20 H     1.0000    0     1.008    5.752421   -2.625623   -1.853689
  21 H     1.0000    0     1.008    5.002634    0.576253   -1.708294
  22 H     1.0000    0     1.008   10.034238   -4.196212   -2.487333
  23 H     1.0000    0     1.008   14.580465   -3.524679   -1.762132
  24 H     1.0000    0     1.008   16.207671    0.778492   -0.864947
  25 H     1.0000    0     1.008   13.321851    4.371825   -0.682305
  26 H     1.0000    0     1.008    7.170717    4.183759   -0.039930
  27 H     1.0000    0     1.008   12.861533   10.909483   -5.264286
  28 H     1.0000    0     1.008   11.498076   13.920138   -1.963388
  29 H     1.0000    0     1.008    8.399436   12.584442    1.278400

--------------------------------
INTERNAL COORDINATES (ANGSTROEM)
--------------------------------
 O      0   0   0     0.000000000000     0.00000000     0.00000000
 C      1   0   0     1.354759124346     0.00000000     0.00000000
 O      2   1   0     1.226387803185   122.25886070     0.00000000
 C      2   1   3     1.511320733696   113.80731677   182.21517733
 C      4   2   1     1.511593132890   113.17973868   295.41889602
 C      5   4   2     1.406853477445   117.81917752   275.80959513
 C      6   5   4     1.393276388984   120.91640178   177.12116677
 C      7   6   5     1.387955849190   119.75151965     1.12972456
 C      8   7   6     1.394609117244   119.87585761   359.49189910
 C      9   8   7     1.405867513424   121.34909130   357.55522682
 N     10   9   8     1.430212906318   121.31409752   182.26987130
 C     11  10   9     1.439425457257   124.57742099    18.51254303
 C     12  11  10     1.411660533875   122.95710227    52.24088466
 Cl    13  12  11     1.731845917049   122.40300131     8.52670708
 C     13  12  11     1.401120269249   120.97751612   186.38520438
 C     15  13  12     1.392482495043   120.47830003   356.37438051
 C     16  15  13     1.392239545517   119.58306033   358.68141614
 C     17  16  15     1.400135999894   119.99215386     3.01253646
 Cl    18  17  16     1.731237478828   117.88126431   179.43119454
 H      1   2   3     0.981680627597   112.82262353   183.24233414
 H      4   2   1     1.100028050279   107.82103038   174.46741659
 H      4   2   1     1.094470988606   108.74559446    61.03913464
 H      6   5   4     1.089746015776   120.37979839   358.40012770
 H      7   6   5     1.086721941345   120.12693205   181.29474095
 H      8   7   6     1.086852766846   120.22144722   180.22944026
 H      9   8   7     1.086614592945   117.64318796   179.26184483
 H     11  10   9     1.027689814973   106.78254679   252.54963810
 H     15  13  12     1.088484647388   120.11337558   176.92196454
 H     16  15  13     1.087809462912   120.05950006   180.06718666
 H     17  16  15     1.088039191849   119.40919265   182.43445238

---------------------------
INTERNAL COORDINATES (A.U.)
---------------------------
 O      0   0   0     0.000000000000     0.00000000     0.00000000
 C      1   0   0     2.560123722446     0.00000000     0.00000000
 O      2   1   0     2.317537082000   122.25886070     0.00000000
 C      2   1   3     2.855982287203   113.80731677   182.21517733
 C      4   2   1     2.856497047078   113.17973868   295.41889602
 C      5   4   2     2.658567782926   117.81917752   275.80959513
 C      6   5   4     2.632910804038   120.91640178   177.12116677
 C      7   6   5     2.622856440943   119.75151965     1.12972456
 C      8   7   6     2.635429295461   119.87585761   359.49189910
 C      9   8   7     2.656704580948   121.34909130   357.55522682
 N     10   9   8     2.702710706142   121.31409752   182.26987130
 C     11  10   9     2.720119904410   124.57742099    18.51254303
 C     12  11  10     2.667651803089   122.95710227    52.24088466
 Cl    13  12  11     3.272714489373   122.40300131     8.52670708
 C     13  12  11     2.647733589566   120.97751612   186.38520438
 C     15  13  12     2.631410561910   120.47830003   356.37438051
 C     16  15  13     2.630951453841   119.58306033   358.68141614
 C     17  16  15     2.645873590044   119.99215386     3.01253646
 Cl    18  17  16     3.271564707766   117.88126431   179.43119454
 H      1   2   3     1.855107537135   112.82262353   183.24233414
 H      4   2   1     2.078751754658   107.82103038   174.46741659
 H      4   2   1     2.068250429987   108.74559446    61.03913464
 H      6   5   4     2.059321525349   120.37979839   358.40012770
 H      7   6   5     2.053606852865   120.12693205   181.29474095
 H      8   7   6     2.053854077233   120.22144722   180.22944026
 H      9   8   7     2.053403993787   117.64318796   179.26184483
 H     11  10   9     1.942052300920   106.78254679   252.54963810
 H     15  13  12     2.056937884542   120.11337558   176.92196454
 H     16  15  13     2.055661970791   120.05950006   180.06718666
 H     17  16  15     2.056096095568   119.40919265   182.43445238

---------------------
BASIS SET INFORMATION
---------------------
There are 5 groups of distinct atoms

 Group   1 Type O   : 6s3p contracted to 2s1p pattern {33/3}
 Group   2 Type C   : 6s3p contracted to 2s1p pattern {33/3}
 Group   3 Type N   : 6s3p contracted to 2s1p pattern {33/3}
 Group   4 Type Cl  : 9s6p contracted to 3s2p pattern {333/33}
 Group   5 Type H   : 3s contracted to 1s pattern {3}

Atom   0O    basis set group =>   1
Atom   1C    basis set group =>   2
Atom   2O    basis set group =>   1
Atom   3C    basis set group =>   2
Atom   4C    basis set group =>   2
Atom   5C    basis set group =>   2
Atom   6C    basis set group =>   2
Atom   7C    basis set group =>   2
Atom   8C    basis set group =>   2
Atom   9C    basis set group =>   2
Atom  10N    basis set group =>   3
Atom  11C    basis set group =>   2
Atom  12C    basis set group =>   2
Atom  13Cl   basis set group =>   4
Atom  14C    basis set group =>   2
Atom  15C    basis set group =>   2
Atom  16C    basis set group =>   2
Atom  17C    basis set group =>   2
Atom  18Cl   basis set group =>   4
Atom  19H    basis set group =>   5
Atom  20H    basis set group =>   5
Atom  21H    basis set group =>   5
Atom  22H    basis set group =>   5
Atom  23H    basis set group =>   5
Atom  24H    basis set group =>   5
Atom  25H    basis set group =>   5
Atom  26H    basis set group =>   5
Atom  27H    basis set group =>   5
Atom  28H    basis set group =>   5
Atom  29H    basis set group =>   5
---------------------------------
AUXILIARY/J BASIS SET INFORMATION
---------------------------------
There are 5 groups of distinct atoms

 Group   1 Type O   : 12s5p4d2f1g contracted to 6s4p3d1f1g pattern {711111/2111/211/2/1}
 Group   2 Type C   : 12s5p4d2f1g contracted to 6s4p3d1f1g pattern {711111/2111/211/2/1}
 Group   3 Type N   : 12s5p4d2f1g contracted to 6s4p3d1f1g pattern {711111/2111/211/2/1}
 Group   4 Type Cl  : 14s5p5d2f1g contracted to 8s4p3d1f1g pattern {71111111/2111/311/2/1}
 Group   5 Type H   : 5s2p1d contracted to 3s1p1d pattern {311/2/1}

Atom   0O    basis set group =>   1
Atom   1C    basis set group =>   2
Atom   2O    basis set group =>   1
Atom   3C    basis set group =>   2
Atom   4C    basis set group =>   2
Atom   5C    basis set group =>   2
Atom   6C    basis set group =>   2
Atom   7C    basis set group =>   2
Atom   8C    basis set group =>   2
Atom   9C    basis set group =>   2
Atom  10N    basis set group =>   3
Atom  11C    basis set group =>   2
Atom  12C    basis set group =>   2
Atom  13Cl   basis set group =>   4
Atom  14C    basis set group =>   2
Atom  15C    basis set group =>   2
Atom  16C    basis set group =>   2
Atom  17C    basis set group =>   2
Atom  18Cl   basis set group =>   4
Atom  19H    basis set group =>   5
Atom  20H    basis set group =>   5
Atom  21H    basis set group =>   5
Atom  22H    basis set group =>   5
Atom  23H    basis set group =>   5
Atom  24H    basis set group =>   5
Atom  25H    basis set group =>   5
Atom  26H    basis set group =>   5
Atom  27H    basis set group =>   5
Atom  28H    basis set group =>   5
Atom  29H    basis set group =>   5
------------------------------------------------------------------------------
                             ORCA STARTUP CALCULATIONS
                           -- RI-GTO INTEGRALS CHOSEN --
------------------------------------------------------------------------------
------------------------------------------------------------------------------
                   ___                                                        
                  /   \      - P O W E R E D   B Y -                         
                 /     \                                                     
                 |  |  |   _    _      __       _____    __    __             
                 |  |  |  | |  | |    /  \     |  _  \  |  |  /  |          
                  \  \/   | |  | |   /    \    | | | |  |  | /  /          
                 / \  \   | |__| |  /  /\  \   | |_| |  |  |/  /          
                |  |  |   |  __  | /  /__\  \  |    /   |      \           
                |  |  |   | |  | | |   __   |  |    \   |  |\   \          
                \     /   | |  | | |  |  |  |  | |\  \  |  | \   \       
                 \___/    |_|  |_| |__|  |__|  |_| \__\ |__|  \__/        
                                                                              
                      - O R C A' S   B I G   F R I E N D -                    
                                      &                                       
                       - I N T E G R A L  F E E D E R -                       
                                                                              
 v1 FN, 2020, v2 2021, v3 2022-2024                                           
------------------------------------------------------------------------------


----------------------
SHARK INTEGRAL PACKAGE
----------------------

Number of atoms                             ...     30
Number of basis functions                   ...    114
Number of shells                            ...     72
Maximum angular momentum                    ...      1
Integral batch strategy                     ... SHARK/LIBINT Hybrid
RI-J (if used) integral strategy            ... SPLIT-RIJ (Revised 2003 algorithm where possible)
Printlevel                                  ...      1
Contraction scheme used                     ... SEGMENTED contraction
Prescreening option                         ... SCHWARTZ
   Thresh                                   ... 2.500e-11
   Tcut                                     ... 2.500e-12
   Tpresel                                  ... 2.500e-12 
Coulomb Range Separation                    ... NOT USED
Exchange Range Separation                   ... NOT USED
Multipole approximations                    ... NOT USED
Finite Nucleus Model                        ... NOT USED
CABS basis                                  ... NOT available
Auxiliary Coulomb fitting basis             ... AVAILABLE
   # of basis functions in Aux-J            ...   1056
   # of shells in Aux-J                     ...    344
   Maximum angular momentum in Aux-J        ...      4
Auxiliary J/K fitting basis                 ... NOT available
Auxiliary Correlation fitting basis         ... NOT available
Auxiliary 'external' fitting basis          ... NOT available

Checking pre-screening integrals            ... done (  0.0 sec) Dimension = 72
Check shell pair data                       ... done (  0.0 sec)
Shell pair information
Shell pair cut-off parameter TPreSel        ...   2.5e-12
Total number of shell pairs                 ...      2628
Shell pairs after pre-screening             ...      2143
Total number of primitive shell pairs       ...     23652
Primitive shell pairs kept                  ...     11946
          la=0 lb=0:    990 shell pairs
          la=1 lb=0:    933 shell pairs
          la=1 lb=1:    220 shell pairs

Calculating one electron integrals          ... done (  0.0 sec)
Calculating RI/J V-Matrix + Cholesky decomp.... done (  0.0 sec)
Calculating Nuclear repulsion               ... done (  0.0 sec) ENN=   1645.217004874859 Eh

Diagonalization of the overlap matrix:
Smallest eigenvalue                        ... 1.735e-01
Time for diagonalization                   ...    0.000 sec
Threshold for overlap eigenvalues          ... 1.000e-07
Number of eigenvalues below threshold      ... 0
Time for construction of square roots      ...    0.002 sec
Total time needed                          ...    0.003 sec

-------------------
DFT GRID GENERATION
-------------------

General Integration Accuracy     IntAcc      ... 4.388
Radial Grid Type                 RadialGrid  ... OptM3 with GC (2021)
Angular Grid (max. ang.)         AngularGrid ... 4 (Lebedev-302)
Angular grid pruning method      GridPruning ... 4 (adaptive)
Weight generation scheme         WeightScheme... mBecke (2022)
Basis function cutoff            BFCut       ... 1.0000e-11
Integration weight cutoff        WCut        ... 1.0000e-14
Partially contracted basis set               ... off
Rotationally invariant grid construction     ... off
Angular grids for H and He will be reduced by one unit

Total number of grid points                  ...   151316
Total number of batches                      ...     2383
Average number of points per batch           ...       63
Average number of grid points per atom       ...     5044
Initializing property integral containers    ... done (  0.0 sec)

SHARK setup successfully completed in   0.8 seconds

Maximum memory used throughout the entire STARTUP-calculation: 53.8 MB
-------------------------------------------------------------------------------
                                 ORCA GUESS
                   Start orbitals & Density for SCF / CASSCF
-------------------------------------------------------------------------------

------------
SCF SETTINGS
------------
Hamiltonian:
 Density Functional     Method          .... DFT(GTOs)
 Exchange Functional    Exchange        .... TPSS
 Correlation Functional Correlation     .... TPSS
 LDA part of GGA corr.  LDAOpt          .... PW91-LDA
 Gradients option       PostSCFGGA      .... off
   NL short-range parameter             ....  5.000000
 RI-approximation to the Coulomb term is turned on
   Number of AuxJ basis functions       .... 1056


General Settings:
 Integral files         IntName         .... Diclofenac\Diclofenac_TPSS_STO-3G\Diclofenac_TPSS_STO-3G.orcainp
 Hartree-Fock type      HFTyp           .... RHF
 Total Charge           Charge          ....    0
 Multiplicity           Mult            ....    1
 Number of Electrons    NEL             ....  152
 Basis Dimension        Dim             ....  114
 Nuclear Repulsion      ENuc            ....   1645.2170048749 Eh

Convergence Acceleration:
 AO-DIIS                CNVDIIS         .... on
   Start iteration      DIISMaxIt       ....    12
   Startup error        DIISStart       ....  0.200000
   # of expansion vecs  DIISMaxEq       ....     5
   Bias factor          DIISBfac        ....   1.050
   Max. coefficient     DIISMaxC        ....  10.000
 MO-DIIS                CNVKDIIS        .... off
 Trust-Rad. Augm. Hess. CNVTRAH         .... auto
   Auto Start mean grad. ratio tolernc. ....  1.125000
   Auto Start start iteration           ....    50
   Auto Start num. interpolation iter.  ....    10
   Max. Number of Micro iterations      ....    24
   Max. Number of Macro iterations      .... Maxiter - #DIIS iter
   Number of Davidson start vectors     ....     2
   Converg. threshold    (grad. norm)   ....   1.000e-05
   Grad. Scal. Fac. for Micro threshold ....   0.100
   Minimum threshold for Micro iter.    ....   1.000e-02
   NR start threshold (gradient norm)   ....   1.000e-04
   Initial trust radius                 ....   0.400
   Minimum AH scaling param. (alpha)    ....   1.000
   Maximum AH scaling param. (alpha)    .... 1000.000
   Quad. conv. algorithm                .... NR
   White noise on init. David. guess    .... on
   Maximum white noise                  ....   0.010
   Pseudo random numbers                .... off
   Inactive MOs                         .... canonical
   Orbital update algorithm             .... Taylor
   Preconditioner                       .... Diag
   Full preconditioner red. dimension   ....   250
 SOSCF                  CNVSOSCF        .... on
   Start iteration      SOSCFMaxIt      ....   150
   Startup grad/error   SOSCFStart      ....  0.003300
   Hessian update       SOSCFHessUp     .... L-BFGS
 Level Shifting         CNVShift        .... on
   Level shift para.    LevelShift      ....    0.2500
   Turn off err/grad.   ShiftErr        ....    0.0010
 Zerner damping         CNVZerner       .... off
 Static damping         CNVDamp         .... on
   Fraction old density DampFac         ....    0.7000
   Max. Damping (<1)    DampMax         ....    0.9800
   Min. Damping (>=0)   DampMin         ....    0.0000
   Turn off err/grad.   DampErr         ....    0.1000

SCF Procedure:
 Maximum # iterations   MaxIter         ....   125
 SCF integral mode      SCFMode         .... Direct
   Integral package                     .... SHARK and LIBINT hybrid scheme
 Reset frequency        DirectResetFreq ....    20
 Integral Threshold     Thresh          ....  2.500e-11 Eh
 Primitive CutOff       TCut            ....  2.500e-12 Eh

Convergence Tolerance:
 Convergence Check Mode ConvCheckMode   .... Total+1el-Energy
 Convergence forced     ConvForced      .... 0
 Energy Change          TolE            ....  1.000e-08 Eh
 1-El. energy change                    ....  1.000e-05 Eh
 Orbital Gradient       TolG            ....  1.000e-05
 Orbital Rotation angle TolX            ....  1.000e-05
 DIIS Error             TolErr          ....  5.000e-07

------------------------------
INITIAL GUESS: MODEL POTENTIAL
------------------------------
Loading Hartree-Fock densities                     ... done
Calculating cut-offs                               ... done
Initializing the effective Hamiltonian             ... done
Setting up the integral package (SHARK)            ... done
Starting the Coulomb interaction                   ... done (   0.1 sec)
Making the grid                                    ... done (   0.2 sec)
Mapping shells                                     ... done
Starting the XC term evaluation                    ... done (   0.1 sec)
  promolecular density results
     # of electrons  =    151.997733258
     EX              =   -152.479502835
     EC              =     -5.314696449
     EX+EC           =   -157.794199285
Transforming the Hamiltonian                       ... done (   0.0 sec)
Diagonalizing the Hamiltonian                      ... done (   0.0 sec)
Back transforming the eigenvectors                 ... done (   0.0 sec)
Now organizing SCF variables                       ... done
                      ------------------
                      INITIAL GUESS DONE (   0.5 sec)
                      ------------------
             **** ENERGY FILE WAS UPDATED (Diclofenac\Diclofenac_TPSS_STO-3G\Diclofenac_TPSS_STO-3G.orcainp.en.tmp) ****
Finished Guess after   0.5 sec
Maximum memory used throughout the entire GUESS-calculation: 23.0 MB

-------------------------------------------------------------------------------------------
                                      ORCA LEAN-SCF
                              memory conserving SCF solver
-------------------------------------------------------------------------------------------

--------------------
CPCM SOLVATION MODEL
--------------------
CPCM parameters:
  Epsilon                                         ...      80.1510
  Refrac                                          ...       1.3328
  Rsolv                                           ...       1.3000
  Surface type                                    ... GAUSSIAN VDW
  Discretization scheme                           ... Constant charge density
    Threshold for H atoms                         ...       5.0000 (charges/Ang^2)
    Threshold for non-H atoms                     ...       5.0000 (charges/Ang^2)
  Epsilon function type                           ...         CPCM
Solvent:                                          ... WATER
Radii:
  Scheme                                          ... Element-dependent radii
  Radius for O  used is    3.4469 Bohr (=   1.8240 Ang.)
  Radius for C  used is    3.8550 Bohr (=   2.0400 Ang.)
  Radius for N  used is    3.5149 Bohr (=   1.8600 Ang.)
  Radius for Cl used is    3.9684 Bohr (=   2.1000 Ang.)
  Radius for H  used is    2.4944 Bohr (=   1.3200 Ang.)
Calculating surface                               ...        done! (  0.0s)
Cavity surface points                             ...         2854
Cavity Volume                                     ...    2166.3234
Cavity Surface-area                               ...    1096.9655
Calculating surface distance matrix               ...        done! (  0.0s)
Performing Cholesky decomposition & store         ...        done! (  0.2s)
Overall time for CPCM initialization              ...                 0.2s

----------------------------------------D-I-I-S--------------------------------------------
Iteration    Energy (Eh)           Delta-E    RMSDP     MaxDP     DIISErr   Damp  Time(sec)
-------------------------------------------------------------------------------------------
               ***  Starting incremental Fock matrix formation  ***
    1    -1646.4222480640407866     0.00e+00  5.35e-03  1.45e-01  2.05e-01  0.700   1.3
    2    -1646.5062690009815469    -8.40e-02  3.75e-03  9.35e-02  8.04e-02  0.700   1.2
                               ***Turning on AO-DIIS***
    3    -1646.5366886440804137    -3.04e-02  1.62e-03  2.77e-02  3.46e-02  0.700   1.2
    4    -1646.5553681452145156    -1.87e-02  2.54e-03  3.89e-02  1.83e-02  0.000   1.1
    5    -1646.5960013594510656    -4.06e-02  6.52e-04  9.15e-03  5.96e-03  0.000   1.2
                              *** Initializing SOSCF ***
---------------------------------------S-O-S-C-F--------------------------------------
Iteration    Energy (Eh)           Delta-E    RMSDP     MaxDP     MaxGrad    Time(sec)
--------------------------------------------------------------------------------------
    6    -1646.5966869187579960    -6.86e-04  1.95e-04  3.18e-03  2.50e-03     1.1
               *** Restarting incremental Fock matrix formation ***
    7    -1646.5967471488922911    -6.02e-05  1.78e-04  4.20e-03  4.44e-04     1.3
    8    -1646.5967483448896473    -1.20e-06  9.83e-05  4.03e-03  7.24e-04     1.1
    9    -1646.5967541978136524    -5.85e-06  9.52e-05  1.92e-03  6.24e-04     1.0
   10    -1646.5967544861598526    -2.88e-07  5.23e-05  1.21e-03  3.77e-04     1.0
   11    -1646.5967574289982167    -2.94e-06  2.57e-05  4.25e-04  9.19e-05     1.0
   12    -1646.5967574083040290     2.07e-08  1.49e-05  2.50e-04  8.31e-05     1.0
   13    -1646.5967576386622113    -2.30e-07  5.78e-06  8.32e-05  1.27e-05     1.0
   14    -1646.5967576302862199     8.38e-09  3.52e-06  5.10e-05  1.53e-05     0.9
                 **** Energy Check signals convergence ****

               *****************************************************
               *                     SUCCESS                       *
               *           SCF CONVERGED AFTER  14 CYCLES          *
               *****************************************************

             **** ENERGY FILE WAS UPDATED (Diclofenac\Diclofenac_TPSS_STO-3G\Diclofenac_TPSS_STO-3G.orcainp.en.tmp) ****

----------------
TOTAL SCF ENERGY
----------------

Total Energy       :      -1646.59675763028622 Eh          -44806.17568 eV

Components:
Nuclear Repulsion  :       1645.21700487485873 Eh           44768.63070 eV
Electronic Energy  :      -3291.80276905009578 Eh          -89574.50723 eV
One Electron Energy:      -5534.11209206567855 Eh         -150590.84592 eV
Two Electron Energy:       2242.30932301558278 Eh           61016.33869 eV
CPCM Dielectric    :         -0.01099345504896 Eh              -0.29915 eV

Virial components:
Potential Energy   :      -3263.32550496472504 Eh          -88799.60147 eV
Kinetic Energy     :       1616.72874733443859 Eh           43993.42580 eV
Virial Ratio       :          2.01847434849234

DFT components:
N(Alpha)           :       76.000016313733 electrons
N(Beta)            :       76.000016313733 electrons
N(Total)           :      152.000032627465 electrons
E(X)               :     -155.357737705935 Eh       
E(C)               :       -5.494934465906 Eh       
E(XC)              :     -160.852672171842 Eh       

CPCM Solvation Model Properties:
Surface-charge          :         -0.00869826398360
Corrected charge        :          0.00000000000000
Outlying charge corr.   :          0.00000422844489 Eh               0.00012 eV
Free-energy (cav+disp)  :  This term is not implemented in the current solvation scheme

---------------
SCF CONVERGENCE
---------------

  Last Energy change         ...   -8.3760e-09  Tolerance :   1.0000e-08
  Last MAX-Density change    ...    5.0999e-05  Tolerance :   1.0000e-07
  Last RMS-Density change    ...    3.5249e-06  Tolerance :   5.0000e-09
  Last DIIS Error            ...    2.5007e-03  Tolerance :   5.0000e-07
  Last Orbital Gradient      ...    1.5302e-05  Tolerance :   1.0000e-05
  Last Orbital Rotation      ...    3.4310e-05  Tolerance :   1.0000e-05


----------------
ORBITAL ENERGIES
----------------

  NO   OCC          E(Eh)            E(eV) 
   0   2.0000     -99.954235     -2719.8930 
   1   2.0000     -99.946751     -2719.6894 
   2   2.0000     -18.694374      -508.6998 
   3   2.0000     -18.623312      -506.7661 
   4   2.0000     -13.982187      -380.4746 
   5   2.0000      -9.919229      -269.9159 
   6   2.0000      -9.907213      -269.5890 
   7   2.0000      -9.897940      -269.3366 
   8   2.0000      -9.897525      -269.3254 
   9   2.0000      -9.875593      -268.7285 
  10   2.0000      -9.849946      -268.0307 
  11   2.0000      -9.848723      -267.9974 
  12   2.0000      -9.846481      -267.9364 
  13   2.0000      -9.841191      -267.7924 
  14   2.0000      -9.840168      -267.7646 
  15   2.0000      -9.826358      -267.3888 
  16   2.0000      -9.825035      -267.3528 
  17   2.0000      -9.824902      -267.3492 
  18   2.0000      -9.822670      -267.2884 
  19   2.0000      -9.061643      -246.5798 
  20   2.0000      -9.054567      -246.3873 
  21   2.0000      -6.867498      -186.8741 
  22   2.0000      -6.860643      -186.6876 
  23   2.0000      -6.850333      -186.4070 
  24   2.0000      -6.850083      -186.4002 
  25   2.0000      -6.843449      -186.2197 
  26   2.0000      -6.842620      -186.1972 
  27   2.0000      -0.960890       -26.1471 
  28   2.0000      -0.881725       -23.9930 
  29   2.0000      -0.860960       -23.4279 
  30   2.0000      -0.798072       -21.7166 
  31   2.0000      -0.778845       -21.1935 
  32   2.0000      -0.751771       -20.4567 
  33   2.0000      -0.724670       -19.7193 
  34   2.0000      -0.689992       -18.7756 
  35   2.0000      -0.665074       -18.0976 
  36   2.0000      -0.636386       -17.3169 
  37   2.0000      -0.634494       -17.2655 
  38   2.0000      -0.611755       -16.6467 
  39   2.0000      -0.542052       -14.7500 
  40   2.0000      -0.529653       -14.4126 
  41   2.0000      -0.516508       -14.0549 
  42   2.0000      -0.503446       -13.6995 
  43   2.0000      -0.489423       -13.3179 
  44   2.0000      -0.454675       -12.3723 
  45   2.0000      -0.445499       -12.1226 
  46   2.0000      -0.420923       -11.4539 
  47   2.0000      -0.405941       -11.0462 
  48   2.0000      -0.402425       -10.9506 
  49   2.0000      -0.390807       -10.6344 
  50   2.0000      -0.382145       -10.3987 
  51   2.0000      -0.371644       -10.1129 
  52   2.0000      -0.360354        -9.8057 
  53   2.0000      -0.358162        -9.7461 
  54   2.0000      -0.347959        -9.4684 
  55   2.0000      -0.333971        -9.0878 
  56   2.0000      -0.326471        -8.8837 
  57   2.0000      -0.314463        -8.5570 
  58   2.0000      -0.298625        -8.1260 
  59   2.0000      -0.293159        -7.9773 
  60   2.0000      -0.288613        -7.8536 
  61   2.0000      -0.281521        -7.6606 
  62   2.0000      -0.274804        -7.4778 
  63   2.0000      -0.264253        -7.1907 
  64   2.0000      -0.257819        -7.0156 
  65   2.0000      -0.237809        -6.4711 
  66   2.0000      -0.235780        -6.4159 
  67   2.0000      -0.229814        -6.2535 
  68   2.0000      -0.222448        -6.0531 
  69   2.0000      -0.207713        -5.6522 
  70   2.0000      -0.179437        -4.8827 
  71   2.0000      -0.172314        -4.6889 
  72   2.0000      -0.168657        -4.5894 
  73   2.0000      -0.143183        -3.8962 
  74   2.0000      -0.122912        -3.3446 
  75   2.0000      -0.099675        -2.7123 
  76   0.0000       0.031609         0.8601 
  77   0.0000       0.033673         0.9163 
  78   0.0000       0.052705         1.4342 
  79   0.0000       0.061973         1.6864 
  80   0.0000       0.088032         2.3955 
  81   0.0000       0.089330         2.4308 
  82   0.0000       0.138480         3.7682 
  83   0.0000       0.182912         4.9773 
  84   0.0000       0.204176         5.5559 
  85   0.0000       0.252434         6.8691 
  86   0.0000       0.283752         7.7213 
*Only the first 10 virtual orbitals were printed.

                    ********************************
                    * MULLIKEN POPULATION ANALYSIS *
                    ********************************

-----------------------
MULLIKEN ATOMIC CHARGES
-----------------------
   0 O :   -0.241545
   1 C :    0.218819
   2 O :   -0.229916
   3 C :   -0.168390
   4 C :   -0.009203
   5 C :   -0.078819
   6 C :   -0.084084
   7 C :   -0.081466
   8 C :   -0.084851
   9 C :    0.064753
  10 N :   -0.302618
  11 C :    0.085899
  12 C :    0.002426
  13 Cl:   -0.093882
  14 C :   -0.066594
  15 C :   -0.076419
  16 C :   -0.067175
  17 C :    0.000358
  18 Cl:   -0.091341
  19 H :    0.246259
  20 H :    0.091773
  21 H :    0.093188
  22 H :    0.084837
  23 H :    0.083349
  24 H :    0.084884
  25 H :    0.085857
  26 H :    0.228587
  27 H :    0.102906
  28 H :    0.098318
  29 H :    0.104089
Sum of atomic charges:   -0.0000000

--------------------------------
MULLIKEN REDUCED ORBITAL CHARGES
--------------------------------
  0 O s       :     3.825675  s :     3.825675
      pz      :     1.574401  p :     4.415870
      px      :     1.657335
      py      :     1.184134

  1 C s       :     3.081572  s :     3.081572
      pz      :     0.916803  p :     2.699609
      px      :     0.985824
      py      :     0.796982

  2 O s       :     3.888678  s :     3.888678
      pz      :     1.652595  p :     4.341238
      px      :     1.283411
      py      :     1.405232

  3 C s       :     3.184978  s :     3.184978
      pz      :     0.975997  p :     2.983412
      px      :     0.960138
      py      :     1.047278

  4 C s       :     3.138214  s :     3.138214
      pz      :     1.006943  p :     2.870989
      px      :     0.929127
      py      :     0.934919

  5 C s       :     3.150982  s :     3.150982
      pz      :     1.005100  p :     2.927837
      px      :     0.949144
      py      :     0.973594

  6 C s       :     3.145039  s :     3.145039
      pz      :     1.002354  p :     2.939045
      px      :     0.963255
      py      :     0.973436

  7 C s       :     3.145611  s :     3.145611
      pz      :     1.002068  p :     2.935855
      px      :     0.984838
      py      :     0.948949

  8 C s       :     3.146833  s :     3.146833
      pz      :     1.008870  p :     2.938017
      px      :     0.939907
      py      :     0.989241

  9 C s       :     3.110629  s :     3.110629
      pz      :     1.045743  p :     2.824618
      px      :     0.913950
      py      :     0.864925

 10 N s       :     3.519484  s :     3.519484
      pz      :     1.430134  p :     3.783134
      px      :     1.310870
      py      :     1.042130

 11 C s       :     3.103914  s :     3.103914
      pz      :     0.972788  p :     2.810187
      px      :     0.993565
      py      :     0.843833

 12 C s       :     3.150642  s :     3.150642
      pz      :     0.885090  p :     2.846931
      px      :     1.039600
      py      :     0.922242

 13 Cls       :     5.960596  s :     5.960596
      pz      :     3.490636  p :    11.133286
      px      :     3.899728
      py      :     3.742923

 14 C s       :     3.145902  s :     3.145902
      pz      :     0.997109  p :     2.920692
      px      :     0.996873
      py      :     0.926709

 15 C s       :     3.143051  s :     3.143051
      pz      :     0.960686  p :     2.933368
      px      :     0.982008
      py      :     0.990674

 16 C s       :     3.144948  s :     3.144948
      pz      :     0.997545  p :     2.922227
      px      :     0.982303
      py      :     0.942379

 17 C s       :     3.151506  s :     3.151506
      pz      :     0.898077  p :     2.848136
      px      :     0.974101
      py      :     0.975959

 18 Cls       :     5.961216  s :     5.961216
      pz      :     3.577479  p :    11.130125
      px      :     3.634880
      py      :     3.917767

 19 H s       :     0.753741  s :     0.753741

 20 H s       :     0.908227  s :     0.908227

 21 H s       :     0.906812  s :     0.906812

 22 H s       :     0.915163  s :     0.915163

 23 H s       :     0.916651  s :     0.916651

 24 H s       :     0.915116  s :     0.915116

 25 H s       :     0.914143  s :     0.914143

 26 H s       :     0.771413  s :     0.771413

 27 H s       :     0.897094  s :     0.897094

 28 H s       :     0.901682  s :     0.901682

 29 H s       :     0.895911  s :     0.895911



                     *******************************
                     * LOEWDIN POPULATION ANALYSIS *
                     *******************************

----------------------
LOEWDIN ATOMIC CHARGES
----------------------
   0 O :   -0.134944
   1 C :    0.137891
   2 O :   -0.179756
   3 C :   -0.104741
   4 C :   -0.010075
   5 C :   -0.046366
   6 C :   -0.047366
   7 C :   -0.044148
   8 C :   -0.058377
   9 C :    0.043140
  10 N :   -0.157676
  11 C :    0.046377
  12 C :   -0.016103
  13 Cl:   -0.054948
  14 C :   -0.040434
  15 C :   -0.041328
  16 C :   -0.040809
  17 C :   -0.019344
  18 Cl:   -0.049520
  19 H :    0.180209
  20 H :    0.054332
  21 H :    0.055639
  22 H :    0.047144
  23 H :    0.045754
  24 H :    0.046922
  25 H :    0.048340
  26 H :    0.157863
  27 H :    0.061705
  28 H :    0.057900
  29 H :    0.062718

-------------------------------
LOEWDIN REDUCED ORBITAL CHARGES
-------------------------------
  0 O s       :     3.679379  s :     3.679379
      pz      :     1.587672  p :     4.455565
      px      :     1.659000
      py      :     1.208894

  1 C s       :     3.042430  s :     3.042430
      pz      :     0.957700  p :     2.819679
      px      :     0.993162
      py      :     0.868816

  2 O s       :     3.773666  s :     3.773666
      pz      :     1.671241  p :     4.406089
      px      :     1.291722
      py      :     1.443126

  3 C s       :     3.023962  s :     3.023962
      pz      :     1.020262  p :     3.080779
      px      :     0.996192
      py      :     1.064324

  4 C s       :     3.034162  s :     3.034162
      pz      :     1.010385  p :     2.975913
      px      :     0.974646
      py      :     0.990881

  5 C s       :     3.028046  s :     3.028046
      pz      :     1.007311  p :     3.018320
      px      :     1.003083
      py      :     1.007926

  6 C s       :     3.019656  s :     3.019656
      pz      :     1.004863  p :     3.027710
      px      :     1.009327
      py      :     1.013521

  7 C s       :     3.019978  s :     3.019978
      pz      :     1.003954  p :     3.024170
      px      :     1.015385
      py      :     1.004831

  8 C s       :     3.026362  s :     3.026362
      pz      :     1.012735  p :     3.032015
      px      :     0.996674
      py      :     1.022606

  9 C s       :     3.020865  s :     3.020865
      pz      :     1.046391  p :     2.935995
      px      :     0.965494
      py      :     0.924110

 10 N s       :     3.326627  s :     3.326627
      pz      :     1.432734  p :     3.831049
      px      :     1.327287
      py      :     1.071028

 11 C s       :     3.021589  s :     3.021589
      pz      :     1.011896  p :     2.932035
      px      :     1.016963
      py      :     0.903176

 12 C s       :     3.058106  s :     3.058106
      pz      :     0.930634  p :     2.957997
      px      :     1.058392
      py      :     0.968971

 13 Cls       :     5.912558  s :     5.912558
      pz      :     3.496822  p :    11.142390
      px      :     3.899296
      py      :     3.746272

 14 C s       :     3.024773  s :     3.024773
      pz      :     1.020877  p :     3.015660
      px      :     1.009960
      py      :     0.984823

 15 C s       :     3.018036  s :     3.018036
      pz      :     1.000091  p :     3.023292
      px      :     1.004158
      py      :     1.019043

 16 C s       :     3.023563  s :     3.023563
      pz      :     1.020267  p :     3.017247
      px      :     1.005859
      py      :     0.991120

 17 C s       :     3.059997  s :     3.059997
      pz      :     0.938810  p :     2.959347
      px      :     1.000276
      py      :     1.020261

 18 Cls       :     5.911400  s :     5.911400
      pz      :     3.582042  p :    11.138120
      px      :     3.638004
      py      :     3.918073

 19 H s       :     0.819791  s :     0.819791

 20 H s       :     0.945668  s :     0.945668

 21 H s       :     0.944361  s :     0.944361

 22 H s       :     0.952856  s :     0.952856

 23 H s       :     0.954246  s :     0.954246

 24 H s       :     0.953078  s :     0.953078

 25 H s       :     0.951660  s :     0.951660

 26 H s       :     0.842137  s :     0.842137

 27 H s       :     0.938295  s :     0.938295

 28 H s       :     0.942100  s :     0.942100

 29 H s       :     0.937282  s :     0.937282



                      *****************************
                      * MAYER POPULATION ANALYSIS *
                      *****************************

  NA   - Mulliken gross atomic population
  ZA   - Total nuclear charge
  QA   - Mulliken gross atomic charge
  VA   - Mayer's total valence
  BVA  - Mayer's bonded valence
  FA   - Mayer's free valence

  ATOM       NA         ZA         QA         VA         BVA        FA
  0 O      8.2415     8.0000    -0.2415     2.3206     2.3206    -0.0000
  1 C      5.7812     6.0000     0.2188     3.9175     3.9175    -0.0000
  2 O      8.2299     8.0000    -0.2299     2.2773     2.2773    -0.0000
  3 C      6.1684     6.0000    -0.1684     3.9586     3.9586     0.0000
  4 C      6.0092     6.0000    -0.0092     3.9687     3.9687    -0.0000
  5 C      6.0788     6.0000    -0.0788     3.9680     3.9680    -0.0000
  6 C      6.0841     6.0000    -0.0841     3.9715     3.9715     0.0000
  7 C      6.0815     6.0000    -0.0815     3.9709     3.9709    -0.0000
  8 C      6.0849     6.0000    -0.0849     3.9679     3.9679     0.0000
  9 C      5.9352     6.0000     0.0648     3.9360     3.9360    -0.0000
 10 N      7.3026     7.0000    -0.3026     3.2385     3.2385    -0.0000
 11 C      5.9141     6.0000     0.0859     3.9479     3.9479    -0.0000
 12 C      5.9976     6.0000     0.0024     3.9110     3.9110    -0.0000
 13 Cl    17.0939    17.0000    -0.0939     1.1346     1.1346    -0.0000
 14 C      6.0666     6.0000    -0.0666     3.9652     3.9652    -0.0000
 15 C      6.0764     6.0000    -0.0764     3.9684     3.9684    -0.0000
 16 C      6.0672     6.0000    -0.0672     3.9652     3.9652    -0.0000
 17 C      5.9996     6.0000     0.0004     3.9065     3.9065     0.0000
 18 Cl    17.0913    17.0000    -0.0913     1.1526     1.1526     0.0000
 19 H      0.7537     1.0000     0.2463     0.9394     0.9394    -0.0000
 20 H      0.9082     1.0000     0.0918     0.9916     0.9916     0.0000
 21 H      0.9068     1.0000     0.0932     0.9913     0.9913    -0.0000
 22 H      0.9152     1.0000     0.0848     0.9928     0.9928     0.0000
 23 H      0.9167     1.0000     0.0833     0.9931     0.9931     0.0000
 24 H      0.9151     1.0000     0.0849     0.9928     0.9928     0.0000
 25 H      0.9141     1.0000     0.0859     0.9926     0.9926     0.0000
 26 H      0.7714     1.0000     0.2286     0.9477     0.9477    -0.0000
 27 H      0.8971     1.0000     0.1029     0.9894     0.9894    -0.0000
 28 H      0.9017     1.0000     0.0983     0.9903     0.9903     0.0000
 29 H      0.8959     1.0000     0.1041     0.9892     0.9892    -0.0000

  Mayer bond orders larger than 0.100000
B(  0-O ,  1-C ) :   1.1013 B(  0-O ,  2-O ) :   0.2637 B(  0-O , 19-H ) :   0.8719 
B(  1-C ,  2-O ) :   1.8634 B(  1-C ,  3-C ) :   0.9047 B(  3-C ,  4-C ) :   0.9939 
B(  3-C , 20-H ) :   0.9595 B(  3-C , 21-H ) :   0.9516 B(  4-C ,  5-C ) :   1.4010 
B(  4-C ,  7-C ) :   0.1054 B(  4-C ,  9-C ) :   1.3485 B(  5-C ,  6-C ) :   1.4340 
B(  5-C ,  8-C ) :   0.1098 B(  5-C , 22-H ) :   0.9592 B(  6-C ,  7-C ) :   1.4220 
B(  6-C ,  9-C ) :   0.1011 B(  6-C , 23-H ) :   0.9610 B(  7-C ,  8-C ) :   1.4361 
B(  7-C , 24-H ) :   0.9606 B(  8-C ,  9-C ) :   1.3772 B(  8-C , 25-H ) :   0.9577 
B(  9-C , 10-N ) :   0.9928 B( 10-N , 11-C ) :   1.0723 B( 10-N , 26-H ) :   0.8794 
B( 11-C , 12-C ) :   1.3145 B( 11-C , 17-C ) :   1.3155 B( 12-C , 13-Cl) :   0.9831 
B( 12-C , 14-C ) :   1.4047 B( 14-C , 15-C ) :   1.4208 B( 14-C , 27-H ) :   0.9564 
B( 15-C , 16-C ) :   1.4184 B( 15-C , 28-H ) :   0.9574 B( 16-C , 17-C ) :   1.4065 
B( 16-C , 29-H ) :   0.9561 B( 17-C , 18-Cl) :   0.9777 

-------
TIMINGS
-------

Total SCF time: 0 days 0 hours 0 min 15 sec 

Total time                  ....      15.677 sec
Sum of individual times     ....      15.594 sec  ( 99.5%)

SCF preparation             ....       0.247 sec  (  1.6%)
Fock matrix formation       ....      15.242 sec  ( 97.2%)
  Startup                   ....       0.009 sec  (  0.1% of F)
  Split-RI-J                ....       3.327 sec  ( 21.8% of F)
  XC integration            ....       6.058 sec  ( 39.7% of F)
    Basis function eval.    ....       1.790 sec  ( 29.5% of XC)
    Density eval.           ....       1.762 sec  ( 29.1% of XC)
    XC-Functional eval.     ....       0.827 sec  ( 13.7% of XC)
    XC-Potential eval.      ....       1.225 sec  ( 20.2% of XC)
  CPCM terms                ....       5.773 sec  ( 37.9% of F)
Diagonalization             ....       0.000 sec  (  0.0%)
Density matrix formation    ....       0.027 sec  (  0.2%)
Total Energy calculation    ....       0.008 sec  (  0.1%)
Population analysis         ....       0.008 sec  (  0.1%)
Orbital Transformation      ....       0.006 sec  (  0.0%)
Orbital Orthonormalization  ....       0.000 sec  (  0.0%)
DIIS solution               ....       0.030 sec  (  0.2%)
SOSCF solution              ....       0.026 sec  (  0.2%)
Finished LeanSCF after  15.7 sec

Maximum memory used throughout the entire LEANSCF-calculation: 70.7 MB

-------------------------   --------------------
FINAL SINGLE POINT ENERGY     -1646.596757630286
-------------------------   --------------------

------------------------------------------------------------------------------
                         ORCA SCF GRADIENT CALCULATION
------------------------------------------------------------------------------

Nuc. rep. gradient        (SHARK) ... done (  0.0 sec)
HCore & Overlap gradient  (SHARK) ... done (  0.1 sec)
Split-RIJ-J gradient      (SHARK) ... done (  0.9 sec)
XC gradient                       ... done (  3.6 sec)
CPCM gradient                     ... done (  0.7 sec)

------------------
CARTESIAN GRADIENT
------------------

   1   O   :    0.015867788   -0.017758540    0.084707983
   2   C   :   -0.006640118   -0.007542154   -0.025930688
   3   O   :    0.022058772    0.048866543    0.039261984
   4   C   :    0.007221992    0.009701866   -0.045780346
   5   C   :    0.004787595    0.008839804    0.003634927
   6   C   :   -0.000884275    0.001448803   -0.001083947
   7   C   :   -0.003184285    0.012106488    0.001740321
   8   C   :   -0.005714460   -0.006920383   -0.001480630
   9   C   :   -0.011096879   -0.005478625    0.001570534
  10   C   :   -0.032813974    0.008863449   -0.000495861
  11   N   :    0.025921004   -0.016413268    0.019871759
  12   C   :   -0.006377231    0.026192017   -0.003017183
  13   C   :    0.000335041   -0.027732201   -0.016961268
  14   Cl  :   -0.011564748    0.033799452    0.034512623
  15   C   :   -0.004036173   -0.003728691    0.005368222
  16   C   :   -0.002955316   -0.005652147    0.000444860
  17   C   :    0.004125478   -0.005450112   -0.003909282
  18   C   :   -0.021063528   -0.022295024    0.017218005
  19   Cl  :    0.031886008    0.018603736   -0.035221434
  20   H   :   -0.019311469   -0.027874585   -0.045717339
  21   H   :   -0.000938566    0.006613187   -0.000540137
  22   H   :    0.003690040   -0.011903384   -0.004841169
  23   H   :    0.007345722    0.008039798    0.001313129
  24   H   :   -0.007402220    0.010210591    0.000363702
  25   H   :   -0.011835399   -0.002546394   -0.003532914
  26   H   :   -0.000258826   -0.013456660   -0.001604290
  27   H   :    0.027111776   -0.001992558   -0.020033730
  28   H   :   -0.006080881   -0.000966332    0.009756635
  29   H   :   -0.003653338   -0.010503071   -0.000199300
  30   H   :    0.005460470   -0.005071605   -0.009415169

Difference to translation invariance:
           :    0.0000000001    0.0000000000   -0.0000000000

Difference to rotation invariance:
           :   -0.0004928983    0.0002596144   -0.0002540406

Norm of the Cartesian gradient     ...    0.1790864881
RMS gradient                       ...    0.0188773733
MAX gradient                       ...    0.0847079833

-------
TIMINGS
-------

Total SCF gradient time     ....        5.691 sec

One electron gradient       ....       0.117 sec  (  2.1%)
RI-J Coulomb gradient       ....       0.875 sec  ( 15.4%)
XC gradient                 ....       3.627 sec  ( 63.7%)
CPCM gradient               ....       0.698 sec  ( 12.3%)
   A-Matrix (El+Nuc)        ....       0.227 sec  (  4.0%)
   Potential                ....       0.471 sec  (  8.3%)

Maximum memory used throughout the entire SCFGRAD-calculation: 25.2 MB
------------------------------------------------------------------------------
                         ORCA GEOMETRY RELAXATION STEP
------------------------------------------------------------------------------

Reading the OPT-File                    .... done
Getting information on internals        .... done
Copying old internal coords+grads       .... done
Making the new internal coordinates     .... (2022 redundants) done
Validating the new internal coordinates .... (2022 redundants) done
Calculating the B-matrix                .... done
Calculating the G,G- and P matrices     .... done
Transforming gradient to internals      .... done
Projecting the internal gradient        .... done
Number of atoms                         ....  30
Number of internal coordinates          .... 150
Current Energy                          .... -1646.596757630 Eh
Current gradient norm                   ....     0.179086488 Eh/bohr
Maximum allowed component of the step   ....  0.300
Current trust radius                    ....  0.300
Evaluating the initial hessian          ....  (Almloef) done
Projecting the Hessian                  .... done
Forming the augmented Hessian           .... done
Diagonalizing the augmented Hessian     .... done
Last element of RFO vector              ....  0.939068447
Lowest eigenvalues of augmented Hessian:
 -0.057028138  0.005774202  0.011914433  0.017143794  0.018265781
Length of the computed step             ....  0.366033172
Warning: the length of the step is outside the trust region - taking restricted step instead
The input lambda is                     ....     0.004487
   iter:   5  x=   -0.003876  g=  271.738156 f(x)=     1.011211
   iter:  10  x=   -0.115874  g=    0.640488 f(x)=     0.018972
   iter:  15  x=   -0.123971  g=    0.402496 f(x)=     0.000000
The output lambda is                    ....    -0.123971 (15 iterations)
The final length of the internal step   ....  0.300000000
Converting the step to Cartesian space:
 Initial RMS(Int)=    0.0244948974
Transforming coordinates:
 Iter   0:  RMS(Cart)=    0.0580726217 RMS(Int)=    0.5133861114
done
Storing new coordinates                 .... done

                                .--------------------.
          ----------------------|Geometry convergence|-------------------------
          Item                value                   Tolerance       Converged
          ---------------------------------------------------------------------
          RMS gradient        0.0143393123            0.0001000000      NO
          MAX gradient        0.0659727976            0.0003000000      NO
          RMS step            0.0244948974            0.0020000000      NO
          MAX step            0.1090687054            0.0040000000      NO
          ........................................................
          Max(Bonds)      0.0577      Max(Angles)    3.06
          Max(Dihed)        1.65      Max(Improp)    0.00
          ---------------------------------------------------------------------

The optimization has not yet converged - more geometry cycles are needed


    ---------------------------------------------------------------------------
                         Redundant Internal Coordinates
                            (Angstroem and degrees)

        Definition                    Value    dE/dq     Step     New-Value
    ----------------------------------------------------------------------------
     1. B(C   1,O   0)                1.3548 -0.058362  0.0406    1.3954   
     2. B(O   2,C   1)                1.2264 -0.065973  0.0305    1.2569   
     3. B(C   3,C   1)                1.5113 -0.056936  0.0577    1.5690   
     4. B(C   4,C   3)                1.5116 -0.023425  0.0238    1.5354   
     5. B(C   5,C   4)                1.4069 -0.013679  0.0101    1.4169   
     6. B(C   6,C   5)                1.3933 -0.020995  0.0150    1.4083   
     7. B(C   7,C   6)                1.3880 -0.027950  0.0198    1.4077   
     8. B(C   8,C   7)                1.3946 -0.017330  0.0125    1.4071   
     9. B(C   9,C   8)                1.4059 -0.018756  0.0139    1.4197   
    10. B(C   9,C   4)                1.4101 -0.020873  0.0156    1.4258   
    11. B(N  10,C   9)                1.4302 -0.041216  0.0360    1.4662   
    12. B(C  11,N  10)                1.4394 -0.006666  0.0061    1.4455   
    13. B(C  12,C  11)                1.4117 -0.022724  0.0171    1.4288   
    14. B(Cl 13,C  12)                1.7318 -0.049193  0.0497    1.7816   
    15. B(C  14,C  12)                1.4011 -0.016798  0.0123    1.4134   
    16. B(C  15,C  14)                1.3925 -0.022715  0.0162    1.4087   
    17. B(C  16,C  15)                1.3922 -0.023062  0.0164    1.4087   
    18. B(C  17,C  16)                1.4001 -0.015177  0.0111    1.4112   
    19. B(C  17,C  11)                1.4124 -0.023102  0.0176    1.4300   
    20. B(Cl 18,C  17)                1.7312 -0.050752  0.0513    1.7825   
    21. B(H  19,O   0)                0.9817 -0.051343  0.0448    1.0265   
    22. B(H  19,N  10)                2.3212  0.003622 -0.0160    2.3051   
[...]
      pz      :     0.993152  p :     2.849798
      px      :     0.932802
      py      :     0.923845

  5 C s       :     3.163662  s :     3.163662
      pz      :     1.002831  p :     2.912784
      px      :     0.941398
      py      :     0.968556

  6 C s       :     3.161752  s :     3.161752
      pz      :     0.997085  p :     2.916486
      px      :     0.956272
      py      :     0.963129

  7 C s       :     3.160517  s :     3.160517
      pz      :     1.002441  p :     2.915704
      px      :     0.977330
      py      :     0.935933

  8 C s       :     3.158183  s :     3.158183
      pz      :     1.008745  p :     2.924787
      px      :     0.931287
      py      :     0.984755

  9 C s       :     3.145428  s :     3.145428
      pz      :     1.047442  p :     2.794217
      px      :     0.893533
      py      :     0.853242

 10 N s       :     3.589786  s :     3.589786
      pz      :     1.427355  p :     3.688021
      px      :     1.212673
      py      :     1.047993

 11 C s       :     3.127006  s :     3.127006
      pz      :     0.958324  p :     2.795501
      px      :     0.992797
      py      :     0.844381

 12 C s       :     3.182333  s :     3.182333
      pz      :     0.864018  p :     2.790299
      px      :     1.024089
      py      :     0.902192

 13 Cls       :     5.968640  s :     5.968640
      pz      :     3.538160  p :    11.143070
      px      :     3.896083
      py      :     3.708827

 14 C s       :     3.160412  s :     3.160412
      pz      :     0.992004  p :     2.900639
      px      :     0.994293
      py      :     0.914342

 15 C s       :     3.161786  s :     3.161786
      pz      :     0.940486  p :     2.898529
      px      :     0.970475
      py      :     0.987569

 16 C s       :     3.159621  s :     3.159621
      pz      :     0.990247  p :     2.901891
      px      :     0.980559
      py      :     0.931085

 17 C s       :     3.183816  s :     3.183816
      pz      :     0.864507  p :     2.790723
      px      :     0.973749
      py      :     0.952466

 18 Cls       :     5.969729  s :     5.969729
      pz      :     3.558738  p :    11.140444
      px      :     3.705841
      py      :     3.875865

 19 H s       :     0.786127  s :     0.786127

 20 H s       :     0.916759  s :     0.916759

 21 H s       :     0.916062  s :     0.916062

 22 H s       :     0.915903  s :     0.915903

 23 H s       :     0.915490  s :     0.915490

 24 H s       :     0.914046  s :     0.914046

 25 H s       :     0.910007  s :     0.910007

 26 H s       :     0.769732  s :     0.769732

 27 H s       :     0.888036  s :     0.888036

 28 H s       :     0.893419  s :     0.893419

 29 H s       :     0.886518  s :     0.886518



                     *******************************
                     * LOEWDIN POPULATION ANALYSIS *
                     *******************************

----------------------
LOEWDIN ATOMIC CHARGES
----------------------
   0 O :   -0.173500
   1 C :    0.096953
   2 O :   -0.195443
   3 C :   -0.094625
   4 C :   -0.006887
   5 C :   -0.044139
   6 C :   -0.042152
   7 C :   -0.040484
   8 C :   -0.055009
   9 C :    0.043584
  10 N :   -0.133339
  11 C :    0.041565
  12 C :    0.014173
  13 Cl:   -0.079711
  14 C :   -0.033551
  15 C :   -0.022954
  16 C :   -0.033708
  17 C :    0.011737
  18 Cl:   -0.074540
  19 H :    0.160050
  20 H :    0.047218
  21 H :    0.048809
  22 H :    0.047133
  23 H :    0.047410
  24 H :    0.048531
  25 H :    0.052768
  26 H :    0.164236
  27 H :    0.069783
  28 H :    0.064971
  29 H :    0.071122

-------------------------------
LOEWDIN REDUCED ORBITAL CHARGES
-------------------------------
  0 O s       :     3.749940  s :     3.749940
      pz      :     1.549826  p :     4.423561
      px      :     1.636508
      py      :     1.237227

  1 C s       :     3.114593  s :     3.114593
      pz      :     0.938390  p :     2.788454
      px      :     0.986665
      py      :     0.863399

  2 O s       :     3.796954  s :     3.796954
      pz      :     1.500852  p :     4.398489
      px      :     1.315864
      py      :     1.581772

  3 C s       :     3.058914  s :     3.058914
      pz      :     1.015664  p :     3.035711
      px      :     0.975229
      py      :     1.044818

  4 C s       :     3.054327  s :     3.054327
      pz      :     0.996726  p :     2.952560
      px      :     0.975154
      py      :     0.980681

  5 C s       :     3.041789  s :     3.041789
      pz      :     1.005817  p :     3.002350
      px      :     0.993595
      py      :     1.002937

  6 C s       :     3.037832  s :     3.037832
      pz      :     1.000031  p :     3.004320
      px      :     1.000339
      py      :     1.003950

  7 C s       :     3.036653  s :     3.036653
      pz      :     1.004389  p :     3.003832
      px      :     1.007439
      py      :     0.992003

  8 C s       :     3.037734  s :     3.037734
      pz      :     1.012705  p :     3.017275
      px      :     0.988174
      py      :     1.016396

  9 C s       :     3.055666  s :     3.055666
      pz      :     1.049251  p :     2.900750
      px      :     0.943866
      py      :     0.907633

 10 N s       :     3.404551  s :     3.404551
      pz      :     1.429763  p :     3.728788
      px      :     1.225980
      py      :     1.073045

 11 C s       :     3.044285  s :     3.044285
      pz      :     1.000249  p :     2.914150
      px      :     1.014337
      py      :     0.899563

 12 C s       :     3.089762  s :     3.089762
      pz      :     0.906603  p :     2.896064
      px      :     1.040369
      py      :     0.949093

 13 Cls       :     5.931140  s :     5.931140
      pz      :     3.541733  p :    11.148571
      px      :     3.895615
      py      :     3.711223

 14 C s       :     3.039390  s :     3.039390
      pz      :     1.015742  p :     2.994161
      px      :     1.004646
      py      :     0.973773

 15 C s       :     3.037212  s :     3.037212
      pz      :     0.982687  p :     2.985742
      px      :     0.988037
      py      :     1.015019

 16 C s       :     3.038241  s :     3.038241
      pz      :     1.014507  p :     2.995467
      px      :     0.998327
      py      :     0.982633

 17 C s       :     3.092252  s :     3.092252
      pz      :     0.905026  p :     2.896011
      px      :     0.992445
      py      :     0.998540

 18 Cls       :     5.930602  s :     5.930602
      pz      :     3.561096  p :    11.143938
      px      :     3.706767
      py      :     3.876075

 19 H s       :     0.839950  s :     0.839950

 20 H s       :     0.952782  s :     0.952782

 21 H s       :     0.951191  s :     0.951191

 22 H s       :     0.952867  s :     0.952867

 23 H s       :     0.952590  s :     0.952590

 24 H s       :     0.951469  s :     0.951469

 25 H s       :     0.947232  s :     0.947232

 26 H s       :     0.835764  s :     0.835764

 27 H s       :     0.930217  s :     0.930217

 28 H s       :     0.935029  s :     0.935029

 29 H s       :     0.928878  s :     0.928878



                      *****************************
                      * MAYER POPULATION ANALYSIS *
                      *****************************

  NA   - Mulliken gross atomic population
  ZA   - Total nuclear charge
  QA   - Mulliken gross atomic charge
  VA   - Mayer's total valence
  BVA  - Mayer's bonded valence
  FA   - Mayer's free valence

  ATOM       NA         ZA         QA         VA         BVA        FA
  0 O      8.2429     8.0000    -0.2429     2.3518     2.3518     0.0000
  1 C      5.8354     6.0000     0.1646     3.8996     3.8996     0.0000
  2 O      8.2397     8.0000    -0.2397     2.2670     2.2670    -0.0000
  3 C      6.1560     6.0000    -0.1560     3.9458     3.9458    -0.0000
  4 C      6.0082     6.0000    -0.0082     3.9617     3.9617     0.0000
  5 C      6.0764     6.0000    -0.0764     3.9629     3.9629    -0.0000
  6 C      6.0782     6.0000    -0.0782     3.9649     3.9649    -0.0000
  7 C      6.0762     6.0000    -0.0762     3.9643     3.9643    -0.0000
  8 C      6.0830     6.0000    -0.0830     3.9628     3.9628     0.0000
  9 C      5.9396     6.0000     0.0604     3.9150     3.9150    -0.0000
 10 N      7.2778     7.0000    -0.2778     3.2848     3.2848     0.0000
 11 C      5.9225     6.0000     0.0775     3.9398     3.9398     0.0000
 12 C      5.9726     6.0000     0.0274     3.8994     3.8994    -0.0000
 13 Cl    17.1117    17.0000    -0.1117     1.1076     1.1076     0.0000
 14 C      6.0611     6.0000    -0.0611     3.9578     3.9578     0.0000
 15 C      6.0603     6.0000    -0.0603     3.9603     3.9603     0.0000
 16 C      6.0615     6.0000    -0.0615     3.9578     3.9578     0.0000
 17 C      5.9745     6.0000     0.0255     3.8922     3.8922     0.0000
 18 Cl    17.1102    17.0000    -0.1102     1.1352     1.1352     0.0000
 19 H      0.7861     1.0000     0.2139     0.9543     0.9543    -0.0000
 20 H      0.9168     1.0000     0.0832     0.9931     0.9931     0.0000
 21 H      0.9161     1.0000     0.0839     0.9930     0.9930     0.0000
 22 H      0.9159     1.0000     0.0841     0.9929     0.9929     0.0000
 23 H      0.9155     1.0000     0.0845     0.9929     0.9929    -0.0000
 24 H      0.9140     1.0000     0.0860     0.9926     0.9926    -0.0000
 25 H      0.9100     1.0000     0.0900     0.9919     0.9919     0.0000
 26 H      0.7697     1.0000     0.2303     0.9470     0.9470     0.0000
 27 H      0.8880     1.0000     0.1120     0.9875     0.9875     0.0000
 28 H      0.8934     1.0000     0.1066     0.9886     0.9886    -0.0000
 29 H      0.8865     1.0000     0.1135     0.9871     0.9871     0.0000

  Mayer bond orders larger than 0.100000
B(  0-O ,  1-C ) :   1.1668 B(  0-O ,  2-O ) :   0.2741 B(  0-O , 19-H ) :   0.7246 
B(  1-C ,  2-O ) :   1.8371 B(  1-C ,  3-C ) :   0.8506 B(  3-C ,  4-C ) :   0.9998 
B(  3-C , 20-H ) :   0.9649 B(  3-C , 21-H ) :   0.9522 B(  4-C ,  5-C ) :   1.4001 
B(  4-C ,  7-C ) :   0.1076 B(  4-C ,  9-C ) :   1.3471 B(  5-C ,  6-C ) :   1.4265 
B(  5-C ,  8-C ) :   0.1066 B(  5-C , 22-H ) :   0.9575 B(  6-C ,  7-C ) :   1.4244 
B(  6-C ,  9-C ) :   0.1054 B(  6-C , 23-H ) :   0.9595 B(  7-C ,  8-C ) :   1.4173 
B(  7-C , 24-H ) :   0.9592 B(  8-C ,  9-C ) :   1.4095 B(  8-C , 25-H ) :   0.9537 
B(  9-C , 10-N ) :   0.9268 B( 10-N , 11-C ) :   1.0134 B( 10-N , 19-H ) :   0.1951 
B( 10-N , 26-H ) :   0.8695 B( 11-C , 12-C ) :   1.3346 B( 11-C , 17-C ) :   1.3357 
B( 12-C , 13-Cl) :   0.9612 B( 12-C , 14-C ) :   1.4050 B( 12-C , 16-C ) :   0.1008 
B( 14-C , 15-C ) :   1.4168 B( 14-C , 27-H ) :   0.9530 B( 15-C , 16-C ) :   1.4134 
B( 15-C , 28-H ) :   0.9538 B( 16-C , 17-C ) :   1.4078 B( 16-C , 29-H ) :   0.9525 
B( 17-C , 18-Cl) :   0.9485 

-------
TIMINGS
-------

Total SCF time: 0 days 0 hours 0 min 7 sec 

Total time                  ....       7.544 sec
Sum of individual times     ....       7.463 sec  ( 98.9%)

SCF preparation             ....       0.254 sec  (  3.4%)
Fock matrix formation       ....       7.139 sec  ( 94.6%)
  Startup                   ....       0.005 sec  (  0.1% of F)
  Split-RI-J                ....       1.559 sec  ( 21.8% of F)
  XC integration            ....       2.891 sec  ( 40.5% of F)
    Basis function eval.    ....       0.879 sec  ( 30.4% of XC)
    Density eval.           ....       0.912 sec  ( 31.5% of XC)
    XC-Functional eval.     ....       0.392 sec  ( 13.6% of XC)
    XC-Potential eval.      ....       0.487 sec  ( 16.8% of XC)
  CPCM terms                ....       2.651 sec  ( 37.1% of F)
Diagonalization             ....       0.000 sec  (  0.0%)
Density matrix formation    ....       0.012 sec  (  0.2%)
Total Energy calculation    ....       0.005 sec  (  0.1%)
Population analysis         ....       0.028 sec  (  0.4%)
Orbital Transformation      ....       0.003 sec  (  0.0%)
Orbital Orthonormalization  ....       0.000 sec  (  0.0%)
DIIS solution               ....       0.003 sec  (  0.0%)
SOSCF solution              ....       0.019 sec  (  0.3%)
Finished LeanSCF after   7.6 sec

Maximum memory used throughout the entire LEANSCF-calculation: 73.2 MB

-------------------------   --------------------
FINAL SINGLE POINT ENERGY     -1646.650227504523
-------------------------   --------------------

                                *** OPTIMIZATION RUN DONE ***


------------------------------------------------------------------------------
                              ORCA PROPERTY CALCULATIONS
------------------------------------------------------------------------------

GBWName                                 ... Diclofenac\Diclofenac_TPSS_STO-3G\Diclofenac_TPSS_STO-3G.orcainp.gbw
Number of atoms                         ...     30
Number of basis functions               ...    114
Max core memory                         ...   1024 MB

Electric properties:
Dipole moment                           ... YES
Quadrupole moment                       ...  NO
Static polarizability (Dipole/Dipole)   ...  NO
Static polarizability (Dipole/Quad.)    ...  NO
Static polarizability (Quad./Quad.)     ...  NO
Static polarizability (Velocity)        ...  NO

Atomic electric properties:
Dipole moment                           ...  NO
Quadrupole moment                       ...  NO
Static polarizability                   ...  NO

Choice of electric origin               ... Center of mass
Position of electric origin             ...     9.216377     4.197887    -2.588900

General magnetic properties:
Magnetizability                         ...  NO

EPR properties:
g-Tensor (aka g-matrix)                 ...  NO
Zero-Field splitting spin-orbit         ...  NO
Zero-field splitting spin-spin          ...  NO
Hyperfine couplings                     ...  NO (   0 nuclei)
Quadrupole couplings                    ...  NO (   0 nuclei)
Contact density                         ...  NO (   0 nuclei)

NMR properties:
Chemical shifts                         ...  NO (   0 nuclei)
Spin-rotation constants                 ...  NO (   0 nuclei)
Spin-spin couplings                     ...  NO (   0 nuclei,    0 pairs)

Choice of magnetic origin               ... GIAO
Position of magnetic origin             ...     0.000000     0.000000     0.000000

Properties with geometric perturbations:
SCF Hessian                             ...  NO
IR spectrum                             ...  NO
VCD spectrum                            ...  NO
X-ray spectroscopy properties:
SCF XES/XAS/RIXS spectra                ...  NO


-------------
DIPOLE MOMENT
-------------

Method             : SCF
Type of density    : Electron Density
Multiplicity       :   1
Irrep              :   0
Energy             : -1646.6502275045234001 Eh
Relativity type    : 
Basis              : AO
                                X                 Y                 Z
Electronic contribution:     -4.004939102       8.792600818      -1.547619268
Nuclear contribution   :      5.212898990      -6.894085002       3.546740700
                        -----------------------------------------
Total Dipole Moment    :      1.207959887       1.898515816       1.999121432
                        -----------------------------------------
Magnitude (a.u.)       :      3.009986029
Magnitude (Debye)      :      7.650776467



--------------------
Rotational spectrum 
--------------------
 
Rotational constants in cm-1:             0.013461             0.007428             0.007299 
Rotational constants in MHz :           403.535980           222.689034           218.829591 

Dipole components along the rotational axes: 
x,y,z [a.u.] :     2.404410    -0.182331     1.801550 
x,y,z [Debye]:     6.111524    -0.463448     4.579177 

 

Dipole moment calculation done in   0.0 sec 

Maximum memory used throughout the entire PROP-calculation: 10.1 MB

--------------------------------
SUGGESTED CITATIONS FOR THIS RUN
--------------------------------

Below you find a list of papers that are relevant to this ORCA run
We neither can nor want to force you to cite these papers, but we appreciate if you do
You receive ORCA, which is the product of decades of hard work by many enthusiastic individuals, for free
The only thing we kindly ask in return is that you cite our papers,
We deeply appreciate it, if you show your appreciation for ORCA by not just citing the generic ORCA reference.

Please note that relegating all ORCA citations to the supporting information does *not* help us.
SI sections are not indexed - citations you put there will not count into any citation statistics
But we need these citations in order to attract the funding resources that allow us to do what we are doing

Therefore, if you are a happy ORCA user, please consider citing a few of the papers listed below in the main body of your paper

In addition to the list printed below, the program has created the file Diclofenac\Diclofenac_TPSS_STO-3G\Diclofenac_TPSS_STO-3G.orcainp.bibtex that contains the list in bibtex format
You can import this file easily into all common literature databanks and citation aid programs


List of essential papers. We consider these as the minimum necessary citations

  1. Neese,F.
     Software update: the ORCA program system, version 5.0
     WIRES Comput. Molec. Sci., 2022 12(1)e1606
     doi.org/10.1002/wcms.1606

List of papers to cite with high priority. The work reported in these papers was absolutely
necessary for this run to complete.
Our perspective: the developers of density functionals and basis sets usually get cited in chemistry papers
Good! But without the algorithms to do something with them, the functionals or basis sets would not do anything.
Hence, in our opinion, the algorithm design and method developments papers are equally worthy of getting cited

  1. Neese,F.
     An improvement of the resolution of the identity approximation for the formation of the Coulomb matrix
     J. Comp. Chem., 2003 24(14)1740-1747
     doi.org/10.1002/jcc.10318
  2. Garcia-Rates,M.; Neese,F.
     Effect of the Solute Cavity on the Solvation Energy and its Derivatives within the Framework of the Gaussian Charge Scheme
     J. Comput. Chem., 2020 41 922-939
     doi.org/10.1002/jcc.26139
  3. Neese,F.
     The SHARK Integral Generation and Digestion System
     J. Comp. Chem., 2022  1-16
     doi.org/10.1002/jcc.26942

List of suggested additional citations. These are papers that are important in the 'surrounding' of 
of this run, or papers that preceded the highly important papers. If you like your results we are grateful for a citation.

  1. Neese,F.
     The ORCA program system
     WIRES Comput. Molec. Sci., 2012 2(1)73-78
     doi.org/10.1002/wcms.81
  2. Neese,F.
     Software update: the ORCA program system, version 4.0
     WIRES Comput. Molec. Sci., 2018 8(1)1-6
     doi.org/10.1002/wcms.1327
  3. Neese,F.; Wennmohs,F.; Becker,U.; Riplinger,C.
     The ORCA quantum chemistry program package
     J. Chem. Phys., 2020 152 Art. No. L224108
     doi.org/10.1063/5.0004608

List of optional additional citations

  1. Neese,F.
     Approximate second-order SCF convergence for spin unrestricted wavefunctions
     Chem. Phys. Lett., 2000 325(1-3)93-98
     doi.org/10.1016/s0009-2614(00)00662-x

Timings for individual modules:

Sum of individual times          ...      273.393 sec (=   4.557 min)
Startup calculation              ...       13.891 sec (=   0.232 min)   5.1 %
SCF iterations                   ...      172.906 sec (=   2.882 min)  63.2 %
Property calculations            ...        0.068 sec (=   0.001 min)   0.0 %
SCF Gradient evaluation          ...       86.368 sec (=   1.439 min)  31.6 %
Geometry relaxation              ...        0.160 sec (=   0.003 min)   0.1 %
                             ****ORCA TERMINATED NORMALLY****
TOTAL RUN TIME: 0 days 0 hours 4 minutes 34 seconds 721 msec
