
                                 *****************
                                 * O   R   C   A *
                                 *****************

                                            #,                                       
                                            ###                                      
                                            ####                                     
                                            #####                                    
                                            ######                                   
                                           ########,                                 
                                     ,,################,,,,,                         
                               ,,#################################,,                 
                          ,,##########################################,,             
                       ,#########################################, ''#####,          
                    ,#############################################,,   '####,        
                  ,##################################################,,,,####,       
                ,###########''''           ''''###############################       
              ,#####''   ,,,,##########,,,,          '''####'''          '####       
            ,##' ,,,,###########################,,,                        '##       
           ' ,,###''''                  '''############,,,                           
         ,,##''                                '''############,,,,        ,,,,,,###''
      ,#''                                            '''#######################'''  
     '                                                          ''''####''''         
             ,#######,   #######,   ,#######,      ##                                
            ,#'     '#,  ##    ##  ,#'     '#,    #''#        ,####,   ,####,        
            ##       ##  ##   ,#'  ##            #'  '#       #'       #'  '#        
            ##       ##  #######   ##           ,######,      #####,   #    #        
            '#,     ,#'  ##    ##  '#,     ,#' ,#      #,     #,   #   #,  ,#        
             '#######'   ##     ##  '#######'  #'      '#     '####' # '####'        



                #########################################################
                #                        -***-                          #
                #          Department of theory and spectroscopy        #
                #                                                       #
                #                      Frank Neese                      #
                #                                                       #
                #     Directorship, Architecture, Infrastructure        #
                #                    SHARK, DRIVERS                     #
                #        Core code/Algorithms in most modules           #
                #                                                       #
                #        Max Planck Institute fuer Kohlenforschung      #
                #                Kaiser Wilhelm Platz 1                 #
                #                 D-45470 Muelheim/Ruhr                 #
                #                      Germany                          #
                #                                                       #
                #                  All rights reserved                  #
                #                        -***-                          #
                #########################################################


                         Program Version 6.0.0  -   RELEASE   -


 With contributions from (in alphabetic order):
   Daniel Aravena         : Magnetic Suceptibility
   Michael Atanasov       : Ab Initio Ligand Field Theory (pilot matlab implementation)
   Alexander A. Auer      : GIAO ZORA, VPT2 properties, NMR spectrum
   Ute Becker             : All parallelization in ORCA, NUMFREQ, NUMCALC
   Giovanni Bistoni       : ED, misc. LED, open-shell LED, HFLD
   Martin Brehm           : Molecular dynamics
   Dmytro Bykov           : pre 5.0 version of the SCF Hessian
   Marcos Casanova-Páez   : Triplet and SCS-CIS(D). UHF-(DLPNO)-IP/EA/STEOM-CCSD. UHF-CVS-IP/STEOM-CCSD
   Vijay G. Chilkuri      : MRCI spin determinant printing, contributions to CSF-ICE
   Pauline Colinet        : FMM embedding
   Dipayan Datta          : RHF DLPNO-CCSD density
   Achintya Kumar Dutta   : EOM-CC, STEOM-CC
   Nicolas Foglia         : Exact transition moments, OPA infrastructure, MCD improvements
   Dmitry Ganyushin       : Spin-Orbit,Spin-Spin,Magnetic field MRCI
   Miquel Garcia          : C-PCM and meta-GGA Hessian, CCSD/C-PCM, Gaussian charge scheme
   Tiago L. C. Gouveia    : GS-ROHF, GS-ROCIS
   Yang Guo               : DLPNO-NEVPT2, F12-NEVPT2, CIM, IAO-localization
   Andreas Hansen         : Spin unrestricted coupled pair/coupled cluster methods
   Ingolf Harden          : AUTO-CI MPn and infrastructure 
   Benjamin Helmich-Paris : MC-RPA, TRAH-(SCF,CASSCF), AVAS, COSX integrals, SCF dyn. polar.
   Lee Huntington         : MR-EOM, pCC
   Robert Izsak           : Overlap fitted RIJCOSX, COSX-SCS-MP3, EOM
   Riya Kayal             : Wick's Theorem for AUTO-CI, AUTO-CI UHF-CCSDT
   Emily Kempfer          : AUTO-CI, RHF CISDT and CCSDT
   Christian Kollmar      : KDIIS, OOCD, Brueckner-CCSD(T), CCSD density, CASPT2, CASPT2-K, improved NEVPT2
   Axel Koslowski         : Symmetry handling
   Simone Kossmann        : Meta GGA functionals, TD-DFT gradient, OOMP2, (MP2 Hessian; deprecated post 5.0)
   Lucas Lang             : DCDCAS
   Marvin Lechner         : AUTO-CI (C++ implementation), FIC-MRCC
   Spencer Leger          : CASSCF response
   Dagmar Lenk            : GEPOL surface, SMD, ORCA-2-JSON
   Dimitrios Liakos       : Extrapolation schemes; Compound Job, initial MDCI parallelization
   Dimitrios Manganas     : Further ROCIS development; embedding schemes. LFT, Crystal Embedding
   Dimitrios Pantazis     : SARC Basis sets
   Anastasios Papadopoulos: AUTO-CI, single reference methods and gradients
   Taras Petrenko         : pre 6.0 DFT Hessian and TD-DFT gradient, (ASA, deprecated), ECA, 1-Electron XAS/XES, NRVS
   Peter Pinski           : DLPNO-MP2, DLPNO-MP2 Gradient
   Christoph Reimann      : Effective Core Potentials
   Marius Retegan         : Local ZFS, SOC
   Christoph Riplinger    : Optimizer, TS searches, QM/MM, DLPNO-CCSD(T), (RO)-DLPNO pert. Triples
   Michael Roemelt        : Original ROCIS implementation
   Masaaki Saitow         : Open-shell DLPNO-CCSD energy and density
   Barbara Sandhoefer     : DKH picture change effects
   Kantharuban Sivalingam : CASSCF convergence/infrastructure, NEVPT2 and variants, FIC-MRCI
   Bernardo de Souza      : ESD, SOC TD-DFT
   Georgi Stoychev        : AutoAux, RI-MP2 NMR, DLPNO-MP2 response, X2C
   Van Anh Tran           : RI-MP2 g-tensors
   Willem Van den Heuvel  : Paramagnetic NMR
   Zikuan Wang            : NOTCH, Electric field optimization 
   Frank Wennmohs         : Technical directorship and infrastructure
   Hang Xu                : AUTO-CI-Response properties 


 We gratefully acknowledge several colleagues who have allowed us to
 interface, adapt or use parts of their codes:
   Stefan Grimme, W. Hujo, H. Kruse, P. Pracht,  : VdW corrections, initial TS optimization,
                  C. Bannwarth, S. Ehlert,         DFT functionals, gCP, sTDA/sTD-DF
                  L. Wittmann, M. Mueller
   Ed Valeev, F. Pavosevic, A. Kumar             : LibInt (2-el integral package), F12 methods
   Garnet Chan, S. Sharma, J. Yang, R. Olivares  : DMRG
   Ulf Ekstrom                                   : XCFun DFT Library
   Mihaly Kallay                                 : mrcc  (arbitrary order and MRCC methods)
   Frank Weinhold                                : gennbo (NPA and NBO analysis)
   Simon Mueller                                 : openCOSMO-RS
   Christopher J. Cramer and Donald G. Truhlar   : smd solvation model
   Lars Goerigk                                  : TD-DFT with DH, B97 family of functionals
   V. Asgeirsson, H. Jonsson                     : NEB implementation
   FAccTs GmbH                                   : IRC, NEB, NEB-TS, DLPNO-Multilevel, CI-OPT
                                                   MM, QMMM, 2- and 3-layer-ONIOM, Crystal-QMMM,
                                                   LR-CPCM, SF, NACMEs, symmetry and pop. for TD-DFT,
                                                   nearIR, NL-DFT gradient (VV10), updates on ESD,
                                                   ML-optimized integration grids, MBIS, APM,
                                                   GOAT, DOCKER, SOLVATOR, interface openCOSMO-RS
   S Lehtola, MJT Oliveira, MAL Marques          : LibXC Library
   Liviu Ungur et al                             : ANISO software


 Your calculation uses the libint2 library for the computation of 2-el integrals
 For citations please refer to: http://libint.valeyev.net

 Your ORCA version has been built with support for libXC version: 6.2.2
 For citations please refer to: https://libxc.gitlab.io

 This ORCA versions uses:
   CBLAS   interface :  Fast vector & matrix operations
   LAPACKE interface :  Fast linear algebra routines
   Shared memory     :  Shared parallel matrices


Warning: RI is on but no J-basis has been assigned. Assigning Def2/J (nothing to worry about!)
================================================================================

----- Orbital basis set information -----
Your calculation utilizes the basis: 6-311+G**
   H, Li - Ne  : R. Krishnan, J. S. Binkley, R. Seeger and J. A. Pople, J. Chem. Phys. 72, 650 (1980).
   Na - Ar     : A. D. McLean and G. S. Chandler J. Chem. Phys. 72, 5639, (1980).
   K  - Ca     : J.-P. Blaudeau, M. P. McGrath, L. A. Curtiss and L. Radom, J. Chem. Phys. 107, 5016 (1997).
   Ga - Kr     : L. A. Curtiss, M. P. McGrath, J.-P. Blandeau, N. E. Davis, R. C. Binning and L. Radom, J. Chem. Phys. 103, 6104 (1995).
   Pol./Diff.
   H, Li - Cl  : T. Clark, J. Chandrasekhar and P. v. R. Schleyer, J. Comp. Chem. 4, 294 (1983).
   H - Ne      : M. J. Frisch, J. A. Pople and J. S. Binkley, J. Chem. Phys. 80, 3265 (1984).

----- AuxJ basis set information -----
Your calculation utilizes the auxiliary basis: def2/J
   F. Weigend, Phys. Chem. Chem. Phys. 8, 1057 (2006).

================================================================================
                                        WARNINGS
                       Please study these warnings very carefully!
================================================================================


WARNING: Geometry Optimization
  ===> : Switching off AutoStart
         For restart on a previous wavefunction, please use MOREAD

================================================================================
                                       INPUT FILE
================================================================================
NAME = Diclofenac\Diclofenac_PBE_6-311+G\Diclofenac_PBE_6-311+G.orcainp
|  1> # ORCA input file
|  2> # 
|  3> !PBE 6-311+G** Opt CPCM(WATER)
|  4> * xyz 0 1
|  5>    O        3.20532         0.77222        -3.48165
|  6>    C        3.01992        -0.42363        -2.87260
|  7>    O        2.60439        -1.40765        -3.47515
|  8>    C        3.32048        -0.40706        -1.39156
|  9>    C        4.77373        -0.12881        -1.08244
| 10>    C        5.66943        -1.21342        -1.10651
| 11>    C        7.03233        -1.02123        -0.89021
| 12>    C        7.51453         0.25274        -0.62393
| 13>    C        6.63498         1.33431        -0.58478
| 14>    C        5.26576         1.17391        -0.86041
| 15>    N        4.37299         2.29124        -0.86707
| 16>    C        4.78516         3.66554        -0.98266
| 17>    C        5.63181         4.12934        -2.01264
| 18>   Cl        6.08405         3.13842        -3.35906
| 19>    C        6.11423         5.44479        -2.01214
| 20>    C        5.70652         6.34622        -1.03224
| 21>    C        4.79176         5.94154        -0.06385
| 22>    C        4.33591         4.61788        -0.04136
| 23>   Cl        3.21047         4.17011         1.19560
| 24>    H        3.58943         1.44889        -2.88309
| 25>    H        3.04405        -1.38942        -0.98093
| 26>    H        2.64728         0.30494        -0.90399
| 27>    H        5.30989        -2.22054        -1.31624
| 28>    H        7.71565        -1.86518        -0.93248
| 29>    H        8.57673         0.41196        -0.45771
| 30>    H        7.04962         2.31347        -0.36106
| 31>    H        3.79458         2.21395        -0.02113
| 32>    H        6.80603         5.77305        -2.78574
| 33>    H        6.08452         7.36622        -1.03898
| 34>    H        4.44479         6.65940         0.67650
| 35> *
| 36> 
| 37>                          ****END OF INPUT****
================================================================================

                       *****************************
                       * Geometry Optimization Run *
                       *****************************

Geometry optimization settings:
Update method            Update   .... BFGS
Choice of coordinates    CoordSys .... (2022) Redundant Internals
Initial Hessian          InHess   .... Almloef's Model
Max. no of cycles        MaxIter  .... 90

Convergence Tolerances:
Energy Change            TolE     ....  5.0000e-06 Eh
Max. Gradient            TolMAXG  ....  3.0000e-04 Eh/bohr
RMS Gradient             TolRMSG  ....  1.0000e-04 Eh/bohr
Max. Displacement        TolMAXD  ....  4.0000e-03 bohr
RMS Displacement         TolRMSD  ....  2.0000e-03 bohr
Strict Convergence                .... False

------------------------------------------------------------------------------
                        ORCA OPTIMIZATION COORDINATE SETUP
------------------------------------------------------------------------------

The optimization will be done in redundant internal coordinates (2022)
Making redundant internal coordinates   ...  (2022 redundants) done
Evaluating the initial hessian          ...  (Almloef) done
Evaluating the coordinates              ...  done
Calculating the B-matrix                .... done
Calculating the G-matrix                .... done
Diagonalizing the G-matrix              .... done
Small eigenvalue found = 5.495e-03
Small eigenvalue found = 1.592e-02
Small eigenvalue found = 2.020e-02
The first mode is                       ....   66
The number of degrees of freedom        ....   84

    -----------------------------------------------------------------
                    Redundant Internal Coordinates


    -----------------------------------------------------------------
         Definition                    Initial Value    Approx d2E/dq
    -----------------------------------------------------------------
      1. B(C   1,O   0)                  1.3548         0.636942   
      2. B(O   2,C   1)                  1.2264         1.020724   
      3. B(C   3,C   1)                  1.5113         0.400110   
      4. B(C   4,C   3)                  1.5116         0.399709   
      5. B(C   5,C   4)                  1.4069         0.587286   
      6. B(C   6,C   5)                  1.3933         0.617321   
      7. B(C   7,C   6)                  1.3880         0.629506   
      8. B(C   8,C   7)                  1.3946         0.614306   
      9. B(C   9,C   8)                  1.4059         0.589417   
     10. B(C   9,C   4)                  1.4101         0.580257   
     11. B(N  10,C   9)                  1.4302         0.482746   
     12. B(C  11,N  10)                  1.4394         0.466681   
     13. B(C  12,C  11)                  1.4117         0.577006   
     14. B(Cl 13,C  12)                  1.7318         0.399338   
     15. B(C  14,C  12)                  1.4011         0.599787   
     16. B(C  15,C  14)                  1.3925         0.619124   
     17. B(C  16,C  15)                  1.3922         0.619677   
     18. B(C  17,C  16)                  1.4001         0.601959   
     19. B(C  17,C  11)                  1.4124         0.575479   
     20. B(Cl 18,C  17)                  1.7312         0.400232   
     21. B(H  19,O   0)                  0.9817         0.480150   
     22. B(H  19,N  10)                  2.3212         0.003502   
     23. B(H  20,C   3)                  1.1000         0.347076   
     24. B(H  21,C   3)                  1.0945         0.354234   
     25. B(H  22,C   5)                  1.0897         0.360436   
     26. B(H  23,C   6)                  1.0867         0.364463   
     27. B(H  24,C   7)                  1.0869         0.364288   
     28. B(H  25,C   8)                  1.0866         0.364606   
     29. B(H  26,N  10)                  1.0277         0.405482   
     30. B(H  26,Cl 18)                  2.3766         0.007157   
     31. B(H  27,C  14)                  1.0885         0.362110   
     32. B(H  28,C  15)                  1.0878         0.363009   
     33. B(H  29,C  16)                  1.0880         0.362703   
     34. A(C   1,O   0,H  19)          112.8226         0.366784   
     35. A(O   0,C   1,O   2)          122.2589         0.471280   
     36. A(O   0,C   1,C   3)          113.8073         0.400825   
     37. A(O   2,C   1,C   3)          123.8939         0.435950   
     38. A(C   4,C   3,H  20)          109.2471         0.325964   
     39. A(C   4,C   3,H  21)          112.3646         0.327061   
     40. A(C   1,C   3,H  20)          107.8210         0.326018   
     41. A(C   1,C   3,H  21)          108.7456         0.327115   
     42. A(H  20,C   3,H  21)          105.0755         0.288421   
     43. A(C   1,C   3,C   4)          113.1797         0.371943   
     44. A(C   5,C   4,C   9)          119.5227         0.424785   
     45. A(C   3,C   4,C   9)          122.5281         0.396779   
     46. A(C   3,C   4,C   5)          117.8192         0.397619   
     47. A(C   4,C   5,C   6)          120.9164         0.429524   
     48. A(C   6,C   5,H  22)          118.6918         0.352706   
     49. A(C   4,C   5,H  22)          120.3798         0.349746   
     50. A(C   5,C   6,C   7)          119.7515         0.434917   
     51. A(C   5,C   6,H  23)          120.1269         0.353370   
     52. A(C   7,C   6,H  23)          120.1213         0.354542   
     53. A(C   8,C   7,H  24)          119.8986         0.353049   
     54. A(C   6,C   7,H  24)          120.2214         0.354513   
     55. A(C   6,C   7,C   8)          119.8759         0.434534   
     56. A(C   7,C   8,C   9)          121.3491         0.429426   
     57. A(C   9,C   8,H  25)          120.9853         0.350640   
     58. A(C   7,C   8,H  25)          117.6432         0.353101   
     59. A(C   8,C   9,N  10)          121.3141         0.408701   
     60. A(C   4,C   9,N  10)          120.2110         0.407570   
     61. A(C   4,C   9,C   8)          118.4311         0.425061   
     62. A(C   9,N  10,C  11)          124.5774         0.389750   
     63. A(C   9,N  10,H  26)          106.7825         0.340099   
     64. A(C  11,N  10,H  26)          107.4016         0.338183   
     65. A(C  12,C  11,C  17)          117.0973         0.422821   
     66. A(N  10,C  11,C  17)          119.9453         0.404548   
     67. A(N  10,C  11,C  12)          122.9571         0.404737   
     68. A(Cl 13,C  12,C  14)          116.5871         0.416913   
     69. A(C  11,C  12,C  14)          120.9775         0.425961   
     70. A(C  11,C  12,Cl 13)          122.4030         0.414052   
     71. A(C  15,C  14,H  27)          119.4061         0.353157   
     72. A(C  12,C  14,H  27)          120.1134         0.351267   
     73. A(C  12,C  14,C  15)          120.4783         0.431377   
     74. A(C  16,C  15,H  28)          120.3428         0.353359   
     75. A(C  14,C  15,H  28)          120.0595         0.353305   
     76. A(C  14,C  15,C  16)          119.5831         0.433915   
     77. A(C  15,C  16,H  29)          119.4092         0.353308   
     78. A(C  15,C  16,C  17)          119.9922         0.431727   
     79. A(C  17,C  16,H  29)          120.5961         0.351579   
     80. A(C  16,C  17,Cl 18)          117.8813         0.417348   
     81. A(C  11,C  17,Cl 18)          120.5682         0.414021   
     82. A(C  11,C  17,C  16)          121.5462         0.426035   
     83. D(C   3,C   1,O   0,H  19)      5.4575         0.029886   
     84. D(O   2,C   1,O   0,H  19)   -176.7577         0.029886   
     85. D(C   4,C   3,C   1,O   0)    -64.5811         0.011880   
     86. D(H  21,C   3,C   1,O   0)     61.0391         0.011880   
     87. D(H  20,C   3,C   1,O   2)     -3.2758         0.011880   
     88. D(H  20,C   3,C   1,O   0)    174.4674         0.011880   
     89. D(C   4,C   3,C   1,O   2)    117.6757         0.011880   
     90. D(C   5,C   4,C   3,H  21)    152.1542         0.011858   
     91. D(C   9,C   4,C   3,H  20)   -148.2199         0.011858   
     92. D(C   9,C   4,C   3,C   1)     91.6388         0.011858   
     93. D(C   5,C   4,C   3,H  20)     35.9509         0.011858   
     94. D(C   5,C   4,C   3,C   1)    -84.1904         0.011858   
     95. D(H  22,C   5,C   4,C   3)     -1.5999         0.023725   
     96. D(C   6,C   5,C   4,C   3)    177.1212         0.023725   
     97. D(C   6,C   5,C   4,C   9)      1.1621         0.023725   
     98. D(H  22,C   5,C   4,C   9)   -177.5589         0.023725   
     99. D(H  23,C   6,C   5,H  22)      0.0370         0.026356   
    100. D(H  23,C   6,C   5,C   4)   -178.7053         0.026356   
    101. D(C   7,C   6,C   5,H  22)    179.8719         0.026356   
    102. D(C   7,C   6,C   5,C   4)      1.1297         0.026356   
    103. D(H  24,C   7,C   6,H  23)      0.0644         0.027473   
    104. D(H  24,C   7,C   6,C   5)   -179.7706         0.027473   
    105. D(C   8,C   7,C   6,H  23)    179.3269         0.027473   
    106. D(C   8,C   7,C   6,C   5)     -0.5081         0.027473   
    107. D(H  25,C   8,C   7,H  24)     -1.4733         0.026084   
    108. D(H  25,C   8,C   7,C   6)    179.2618         0.026084   
    109. D(C   9,C   8,C   7,H  24)    176.8201         0.026084   
    110. D(C   9,C   8,C   7,C   6)     -2.4448         0.026084   
    111. D(N  10,C   9,C   4,C   3)      2.6341         0.023133   
    112. D(C   8,C   9,C   4,C   5)     -3.9796         0.023133   
    113. D(C   8,C   9,C   4,C   3)   -179.7404         0.023133   
    114. D(N  10,C   9,C   8,H  25)      0.5064         0.023906   
    115. D(N  10,C   9,C   8,C   7)   -177.7301         0.023906   
    116. D(C   4,C   9,C   8,H  25)   -177.0918         0.023906   
    117. D(C   4,C   9,C   8,C   7)      4.6717         0.023906   
    118. D(N  10,C   9,C   4,C   5)    178.3949         0.023133   
    119. D(H  26,N  10,C   9,C   8)   -107.4504         0.019940   
    120. D(H  26,N  10,C   9,C   4)     70.1055         0.019940   
    121. D(C  11,N  10,C   9,C   8)     18.5125         0.019940   
    122. D(C  11,N  10,C   9,C   4)   -163.9316         0.019940   
    123. D(C  17,C  11,N  10,H  26)     -2.2690         0.018602   
    124. D(C  17,C  11,N  10,C   9)   -127.9682         0.018602   
    125. D(C  12,C  11,N  10,H  26)    177.9402         0.018602   
    126. D(C  12,C  11,N  10,C   9)     52.2409         0.018602   
    127. D(C  14,C  12,C  11,C  17)      6.5887         0.022863   
    128. D(C  14,C  12,C  11,N  10)   -173.6148         0.022863   
    129. D(Cl 13,C  12,C  11,C  17)   -171.2697         0.022863   
    130. D(Cl 13,C  12,C  11,N  10)      8.5267         0.022863   
    131. D(H  27,C  14,C  12,Cl 13)     -5.0999         0.024799   
    132. D(H  27,C  14,C  12,C  11)    176.9220         0.024799   
    133. D(C  15,C  14,C  12,Cl 13)    174.3526         0.024799   
    134. D(C  15,C  14,C  12,C  11)     -3.6256         0.024799   
    135. D(H  28,C  15,C  14,H  27)     -0.4765         0.026520   
    136. D(H  28,C  15,C  14,C  12)   -179.9328         0.026520   
    137. D(C  16,C  15,C  14,H  27)    178.1377         0.026520   
    138. D(C  16,C  15,C  14,C  12)     -1.3186         0.026520   
    139. D(H  29,C  16,C  15,H  28)      1.0447         0.026570   
    140. D(H  29,C  16,C  15,C  14)   -177.5655         0.026570   
    141. D(C  17,C  16,C  15,H  28)   -178.3772         0.026570   
    142. D(C  17,C  16,C  15,C  14)      3.0125         0.026570   
    143. D(Cl 18,C  17,C  11,N  10)     -3.9322         0.022737   
    144. D(C  16,C  17,C  11,C  12)     -4.9004         0.022737   
    145. D(C  16,C  17,C  11,N  10)    175.2967         0.022737   
    146. D(Cl 18,C  17,C  16,H  29)      0.0162         0.024989   
    147. D(Cl 18,C  17,C  16,C  15)    179.4312         0.024989   
    148. D(C  11,C  17,C  16,H  29)   -179.2326         0.024989   
    149. D(C  11,C  17,C  16,C  15)      0.1823         0.024989   
    150. D(Cl 18,C  17,C  11,C  12)    175.8707         0.022737   
    -----------------------------------------------------------------

Number of atoms                         .... 30
Number of degrees of freedom            .... 150


         *************************************************************
         *                GEOMETRY OPTIMIZATION CYCLE   1            *
         *************************************************************
---------------------------------
CARTESIAN COORDINATES (ANGSTROEM)
---------------------------------
  O      3.205320    0.772220   -3.481650
  C      3.019920   -0.423630   -2.872600
  O      2.604390   -1.407650   -3.475150
  C      3.320480   -0.407060   -1.391560
  C      4.773730   -0.128810   -1.082440
  C      5.669430   -1.213420   -1.106510
  C      7.032330   -1.021230   -0.890210
  C      7.514530    0.252740   -0.623930
  C      6.634980    1.334310   -0.584780
  C      5.265760    1.173910   -0.860410
  N      4.372990    2.291240   -0.867070
  C      4.785160    3.665540   -0.982660
  C      5.631810    4.129340   -2.012640
  Cl     6.084050    3.138420   -3.359060
  C      6.114230    5.444790   -2.012140
  C      5.706520    6.346220   -1.032240
  C      4.791760    5.941540   -0.063850
  C      4.335910    4.617880   -0.041360
  Cl     3.210470    4.170110    1.195600
  H      3.589430    1.448890   -2.883090
  H      3.044050   -1.389420   -0.980930
  H      2.647280    0.304940   -0.903990
  H      5.309890   -2.220540   -1.316240
  H      7.715650   -1.865180   -0.932480
  H      8.576730    0.411960   -0.457710
  H      7.049620    2.313470   -0.361060
  H      3.794580    2.213950   -0.021130
  H      6.806030    5.773050   -2.785740
  H      6.084520    7.366220   -1.038980
  H      4.444790    6.659400    0.676500

----------------------------
CARTESIAN COORDINATES (A.U.)
----------------------------
  NO LB      ZA    FRAG     MASS         X           Y           Z
   0 O     8.0000    0    15.999    6.057177    1.459284   -6.579365
   1 C     6.0000    0    12.011    5.706822   -0.800545   -5.428427
   2 O     8.0000    0    15.999    4.921584   -2.660073   -6.567082
   3 C     6.0000    0    12.011    6.274798   -0.769232   -2.629667
   4 C     6.0000    0    12.011    9.021042   -0.243416   -2.045515
   5 C     6.0000    0    12.011   10.713670   -2.293031   -2.091001
   6 C     6.0000    0    12.011   13.289178   -1.929845   -1.682253
   7 C     6.0000    0    12.011   14.200404    0.477609   -1.179057
   8 C     6.0000    0    12.011   12.538295    2.521480   -1.105074
   9 C     6.0000    0    12.011    9.950844    2.218368   -1.625939
  10 N     7.0000    0    14.007    8.263753    4.329816   -1.638525
  11 C     6.0000    0    12.011    9.042642    6.926867   -1.856958
  12 C     6.0000    0    12.011   10.642579    7.803322   -3.803338
  13 Cl   17.0000    0    35.453   11.497188    5.930754   -6.347703
  14 C     6.0000    0    12.011   11.554220   10.289162   -3.802394
  15 C     6.0000    0    12.011   10.783760   11.992618   -1.950651
  16 C     6.0000    0    12.011    9.055114   11.227883   -0.120659
  17 C     6.0000    0    12.011    8.193682    8.726529   -0.078159
  18 Cl   17.0000    0    35.453    6.066909    7.880366    2.259357
  19 H     1.0000    0     1.008    6.783040    2.738005   -5.448251
  20 H     1.0000    0     1.008    5.752421   -2.625623   -1.853689
  21 H     1.0000    0     1.008    5.002634    0.576253   -1.708294
  22 H     1.0000    0     1.008   10.034238   -4.196212   -2.487333
  23 H     1.0000    0     1.008   14.580465   -3.524679   -1.762132
  24 H     1.0000    0     1.008   16.207671    0.778492   -0.864947
  25 H     1.0000    0     1.008   13.321851    4.371825   -0.682305
  26 H     1.0000    0     1.008    7.170717    4.183759   -0.039930
  27 H     1.0000    0     1.008   12.861533   10.909483   -5.264286
  28 H     1.0000    0     1.008   11.498076   13.920138   -1.963388
  29 H     1.0000    0     1.008    8.399436   12.584442    1.278400

--------------------------------
INTERNAL COORDINATES (ANGSTROEM)
--------------------------------
 O      0   0   0     0.000000000000     0.00000000     0.00000000
 C      1   0   0     1.354759124346     0.00000000     0.00000000
 O      2   1   0     1.226387803185   122.25886070     0.00000000
 C      2   1   3     1.511320733696   113.80731677   182.21517733
 C      4   2   1     1.511593132890   113.17973868   295.41889602
 C      5   4   2     1.406853477445   117.81917752   275.80959513
 C      6   5   4     1.393276388984   120.91640178   177.12116677
 C      7   6   5     1.387955849190   119.75151965     1.12972456
 C      8   7   6     1.394609117244   119.87585761   359.49189910
 C      9   8   7     1.405867513424   121.34909130   357.55522682
 N     10   9   8     1.430212906318   121.31409752   182.26987130
 C     11  10   9     1.439425457257   124.57742099    18.51254303
 C     12  11  10     1.411660533875   122.95710227    52.24088466
 Cl    13  12  11     1.731845917049   122.40300131     8.52670708
 C     13  12  11     1.401120269249   120.97751612   186.38520438
 C     15  13  12     1.392482495043   120.47830003   356.37438051
 C     16  15  13     1.392239545517   119.58306033   358.68141614
 C     17  16  15     1.400135999894   119.99215386     3.01253646
 Cl    18  17  16     1.731237478828   117.88126431   179.43119454
 H      1   2   3     0.981680627597   112.82262353   183.24233414
 H      4   2   1     1.100028050279   107.82103038   174.46741659
 H      4   2   1     1.094470988606   108.74559446    61.03913464
 H      6   5   4     1.089746015776   120.37979839   358.40012770
 H      7   6   5     1.086721941345   120.12693205   181.29474095
 H      8   7   6     1.086852766846   120.22144722   180.22944026
 H      9   8   7     1.086614592945   117.64318796   179.26184483
 H     11  10   9     1.027689814973   106.78254679   252.54963810
 H     15  13  12     1.088484647388   120.11337558   176.92196454
 H     16  15  13     1.087809462912   120.05950006   180.06718666
 H     17  16  15     1.088039191849   119.40919265   182.43445238

---------------------------
INTERNAL COORDINATES (A.U.)
---------------------------
 O      0   0   0     0.000000000000     0.00000000     0.00000000
 C      1   0   0     2.560123722446     0.00000000     0.00000000
 O      2   1   0     2.317537082000   122.25886070     0.00000000
 C      2   1   3     2.855982287203   113.80731677   182.21517733
 C      4   2   1     2.856497047078   113.17973868   295.41889602
 C      5   4   2     2.658567782926   117.81917752   275.80959513
 C      6   5   4     2.632910804038   120.91640178   177.12116677
 C      7   6   5     2.622856440943   119.75151965     1.12972456
 C      8   7   6     2.635429295461   119.87585761   359.49189910
 C      9   8   7     2.656704580948   121.34909130   357.55522682
 N     10   9   8     2.702710706142   121.31409752   182.26987130
 C     11  10   9     2.720119904410   124.57742099    18.51254303
 C     12  11  10     2.667651803089   122.95710227    52.24088466
 Cl    13  12  11     3.272714489373   122.40300131     8.52670708
 C     13  12  11     2.647733589566   120.97751612   186.38520438
 C     15  13  12     2.631410561910   120.47830003   356.37438051
 C     16  15  13     2.630951453841   119.58306033   358.68141614
 C     17  16  15     2.645873590044   119.99215386     3.01253646
 Cl    18  17  16     3.271564707766   117.88126431   179.43119454
 H      1   2   3     1.855107537135   112.82262353   183.24233414
 H      4   2   1     2.078751754658   107.82103038   174.46741659
 H      4   2   1     2.068250429987   108.74559446    61.03913464
 H      6   5   4     2.059321525349   120.37979839   358.40012770
 H      7   6   5     2.053606852865   120.12693205   181.29474095
 H      8   7   6     2.053854077233   120.22144722   180.22944026
 H      9   8   7     2.053403993787   117.64318796   179.26184483
 H     11  10   9     1.942052300920   106.78254679   252.54963810
 H     15  13  12     2.056937884542   120.11337558   176.92196454
 H     16  15  13     2.055661970791   120.05950006   180.06718666
 H     17  16  15     2.056096095568   119.40919265   182.43445238

---------------------
BASIS SET INFORMATION
---------------------
There are 5 groups of distinct atoms

 Group   1 Type O   : 12s6p1d contracted to 5s4p1d pattern {63111/3111/1}
 Group   2 Type C   : 12s6p1d contracted to 5s4p1d pattern {63111/3111/1}
 Group   3 Type N   : 12s6p1d contracted to 5s4p1d pattern {63111/3111/1}
 Group   4 Type Cl  : 14s11p1d contracted to 7s6p1d pattern {6311111/521111/1}
 Group   5 Type H   : 5s1p contracted to 3s1p pattern {311/1}

Atom   0O    basis set group =>   1
Atom   1C    basis set group =>   2
Atom   2O    basis set group =>   1
Atom   3C    basis set group =>   2
Atom   4C    basis set group =>   2
Atom   5C    basis set group =>   2
Atom   6C    basis set group =>   2
Atom   7C    basis set group =>   2
Atom   8C    basis set group =>   2
Atom   9C    basis set group =>   2
Atom  10N    basis set group =>   3
Atom  11C    basis set group =>   2
Atom  12C    basis set group =>   2
Atom  13Cl   basis set group =>   4
Atom  14C    basis set group =>   2
Atom  15C    basis set group =>   2
Atom  16C    basis set group =>   2
Atom  17C    basis set group =>   2
Atom  18Cl   basis set group =>   4
Atom  19H    basis set group =>   5
Atom  20H    basis set group =>   5
Atom  21H    basis set group =>   5
Atom  22H    basis set group =>   5
Atom  23H    basis set group =>   5
Atom  24H    basis set group =>   5
Atom  25H    basis set group =>   5
Atom  26H    basis set group =>   5
Atom  27H    basis set group =>   5
Atom  28H    basis set group =>   5
Atom  29H    basis set group =>   5
---------------------------------
AUXILIARY/J BASIS SET INFORMATION
---------------------------------
There are 5 groups of distinct atoms

 Group   1 Type O   : 12s5p4d2f1g contracted to 6s4p3d1f1g pattern {711111/2111/211/2/1}
 Group   2 Type C   : 12s5p4d2f1g contracted to 6s4p3d1f1g pattern {711111/2111/211/2/1}
 Group   3 Type N   : 12s5p4d2f1g contracted to 6s4p3d1f1g pattern {711111/2111/211/2/1}
 Group   4 Type Cl  : 14s5p5d2f1g contracted to 8s4p3d1f1g pattern {71111111/2111/311/2/1}
 Group   5 Type H   : 5s2p1d contracted to 3s1p1d pattern {311/2/1}

Atom   0O    basis set group =>   1
Atom   1C    basis set group =>   2
Atom   2O    basis set group =>   1
Atom   3C    basis set group =>   2
Atom   4C    basis set group =>   2
Atom   5C    basis set group =>   2
Atom   6C    basis set group =>   2
Atom   7C    basis set group =>   2
Atom   8C    basis set group =>   2
Atom   9C    basis set group =>   2
Atom  10N    basis set group =>   3
Atom  11C    basis set group =>   2
Atom  12C    basis set group =>   2
Atom  13Cl   basis set group =>   4
Atom  14C    basis set group =>   2
Atom  15C    basis set group =>   2
Atom  16C    basis set group =>   2
Atom  17C    basis set group =>   2
Atom  18Cl   basis set group =>   4
Atom  19H    basis set group =>   5
Atom  20H    basis set group =>   5
Atom  21H    basis set group =>   5
Atom  22H    basis set group =>   5
Atom  23H    basis set group =>   5
Atom  24H    basis set group =>   5
Atom  25H    basis set group =>   5
Atom  26H    basis set group =>   5
Atom  27H    basis set group =>   5
Atom  28H    basis set group =>   5
Atom  29H    basis set group =>   5
------------------------------------------------------------------------------
                             ORCA STARTUP CALCULATIONS
                           -- RI-GTO INTEGRALS CHOSEN --
------------------------------------------------------------------------------
------------------------------------------------------------------------------
                   ___                                                        
                  /   \      - P O W E R E D   B Y -                         
                 /     \                                                     
                 |  |  |   _    _      __       _____    __    __             
                 |  |  |  | |  | |    /  \     |  _  \  |  |  /  |          
                  \  \/   | |  | |   /    \    | | | |  |  | /  /          
                 / \  \   | |__| |  /  /\  \   | |_| |  |  |/  /          
                |  |  |   |  __  | /  /__\  \  |    /   |      \           
                |  |  |   | |  | | |   __   |  |    \   |  |\   \          
                \     /   | |  | | |  |  |  |  | |\  \  |  | \   \       
                 \___/    |_|  |_| |__|  |__|  |_| \__\ |__|  \__/        
                                                                              
                      - O R C A' S   B I G   F R I E N D -                    
                                      &                                       
                       - I N T E G R A L  F E E D E R -                       
                                                                              
 v1 FN, 2020, v2 2021, v3 2022-2024                                           
------------------------------------------------------------------------------


----------------------
SHARK INTEGRAL PACKAGE
----------------------

Number of atoms                             ...     30
Number of basis functions                   ...    500
Number of shells                            ...    242
Maximum angular momentum                    ...      2
Integral batch strategy                     ... SHARK/LIBINT Hybrid
RI-J (if used) integral strategy            ... SPLIT-RIJ (Revised 2003 algorithm where possible)
Printlevel                                  ...      1
Contraction scheme used                     ... SEGMENTED contraction
Prescreening option                         ... SCHWARTZ
   Thresh                                   ... 2.500e-11
   Tcut                                     ... 2.500e-12
   Tpresel                                  ... 2.500e-12 
Coulomb Range Separation                    ... NOT USED
Exchange Range Separation                   ... NOT USED
Multipole approximations                    ... NOT USED
Finite Nucleus Model                        ... NOT USED
CABS basis                                  ... NOT available
Auxiliary Coulomb fitting basis             ... AVAILABLE
   # of basis functions in Aux-J            ...   1056
   # of shells in Aux-J                     ...    344
   Maximum angular momentum in Aux-J        ...      4
Auxiliary J/K fitting basis                 ... NOT available
Auxiliary Correlation fitting basis         ... NOT available
Auxiliary 'external' fitting basis          ... NOT available

Checking pre-screening integrals            ... done (  0.0 sec) Dimension = 242
Check shell pair data                       ... done (  0.0 sec)
Shell pair information
Shell pair cut-off parameter TPreSel        ...   2.5e-12
Total number of shell pairs                 ...     29403
Shell pairs after pre-screening             ...     23115
Total number of primitive shell pairs       ...     97909
Primitive shell pairs kept                  ...     51209
          la=0 lb=0:   6654 shell pairs
          la=1 lb=0:   9637 shell pairs
          la=1 lb=1:   3522 shell pairs
          la=2 lb=0:   1804 shell pairs
          la=2 lb=1:   1355 shell pairs
          la=2 lb=2:    143 shell pairs

Calculating one electron integrals          ... done (  0.1 sec)
Calculating RI/J V-Matrix + Cholesky decomp.... done (  0.0 sec)
Calculating Nuclear repulsion               ... done (  0.0 sec) ENN=   1645.217004874859 Eh

Diagonalization of the overlap matrix:
Smallest eigenvalue                        ... 4.502e-07
Time for diagonalization                   ...    0.014 sec
Threshold for overlap eigenvalues          ... 1.000e-07
Number of eigenvalues below threshold      ... 0

IMPORTANT:
Smallest eigenvalue of S below the DiffSThresh (1.000e-06) while
Thresh>1e-12 and/or TCut>1e-13! In order to avoid SCF convergence issues,
Thresh will be set to at least 1e-12 and TCut to at least 1e-13.
This can be turned off by adding %SCF DiffSThresh -1 END to the input.

Time for construction of square roots      ...    0.011 sec
Total time needed                          ...    0.026 sec

-------------------
DFT GRID GENERATION
-------------------

General Integration Accuracy     IntAcc      ... 4.388
Radial Grid Type                 RadialGrid  ... OptM3 with GC (2021)
Angular Grid (max. ang.)         AngularGrid ... 4 (Lebedev-302)
Angular grid pruning method      GridPruning ... 4 (adaptive)
Weight generation scheme         WeightScheme... mBecke (2022)
Basis function cutoff            BFCut       ... 1.0000e-11
Integration weight cutoff        WCut        ... 1.0000e-14
Partially contracted basis set               ... off
Rotationally invariant grid construction     ... off
Angular grids for H and He will be reduced by one unit
Diffuse basis detected: some atoms will have their outermost
                        angular grid increased by 1.

Total number of grid points                  ...   155976
Total number of batches                      ...     2452
Average number of points per batch           ...       63
Average number of grid points per atom       ...     5199
Initializing property integral containers    ... done (  0.0 sec)

SHARK setup successfully completed in   1.3 seconds

Maximum memory used throughout the entire STARTUP-calculation: 84.6 MB
-------------------------------------------------------------------------------
                                 ORCA GUESS
                   Start orbitals & Density for SCF / CASSCF
-------------------------------------------------------------------------------

------------
SCF SETTINGS
------------
Hamiltonian:
 Density Functional     Method          .... DFT(GTOs)
 Exchange Functional    Exchange        .... PBE
   PBE kappa parameter   XKappa         ....  0.804000
   PBE mue parameter    XMuePBE         ....  0.219520
 Correlation Functional Correlation     .... PBE
   PBE beta parameter  CBetaPBE         ....  0.066725
 LDA part of GGA corr.  LDAOpt          .... PW91-LDA
 Gradients option       PostSCFGGA      .... off
   NL short-range parameter             ....  6.400000
 RI-approximation to the Coulomb term is turned on
   Number of AuxJ basis functions       .... 1056


General Settings:
 Integral files         IntName         .... Diclofenac\Diclofenac_PBE_6-311+G\Diclofenac_PBE_6-311+G.orcainp
 Hartree-Fock type      HFTyp           .... RHF
 Total Charge           Charge          ....    0
 Multiplicity           Mult            ....    1
 Number of Electrons    NEL             ....  152
 Basis Dimension        Dim             ....  500
 Nuclear Repulsion      ENuc            ....   1645.2170048749 Eh

Convergence Acceleration:
 AO-DIIS                CNVDIIS         .... on
   Start iteration      DIISMaxIt       ....    12
   Startup error        DIISStart       ....  0.200000
   # of expansion vecs  DIISMaxEq       ....     5
   Bias factor          DIISBfac        ....   1.050
   Max. coefficient     DIISMaxC        ....  10.000
 MO-DIIS                CNVKDIIS        .... off
 Trust-Rad. Augm. Hess. CNVTRAH         .... auto
   Auto Start mean grad. ratio tolernc. ....  1.125000
   Auto Start start iteration           ....    50
   Auto Start num. interpolation iter.  ....    10
   Max. Number of Micro iterations      ....    24
   Max. Number of Macro iterations      .... Maxiter - #DIIS iter
   Number of Davidson start vectors     ....     2
   Converg. threshold    (grad. norm)   ....   1.000e-05
   Grad. Scal. Fac. for Micro threshold ....   0.100
   Minimum threshold for Micro iter.    ....   1.000e-02
   NR start threshold (gradient norm)   ....   1.000e-04
   Initial trust radius                 ....   0.400
   Minimum AH scaling param. (alpha)    ....   1.000
   Maximum AH scaling param. (alpha)    .... 1000.000
   Quad. conv. algorithm                .... NR
   White noise on init. David. guess    .... on
   Maximum white noise                  ....   0.010
   Pseudo random numbers                .... off
   Inactive MOs                         .... canonical
   Orbital update algorithm             .... Taylor
   Preconditioner                       .... Diag
   Full preconditioner red. dimension   ....   250
 SOSCF                  CNVSOSCF        .... on
   Start iteration      SOSCFMaxIt      ....   150
   Startup grad/error   SOSCFStart      ....  0.003300
   Hessian update       SOSCFHessUp     .... L-BFGS
 Level Shifting         CNVShift        .... on
   Level shift para.    LevelShift      ....    0.2500
   Turn off err/grad.   ShiftErr        ....    0.0010
 Zerner damping         CNVZerner       .... off
 Static damping         CNVDamp         .... on
   Fraction old density DampFac         ....    0.7000
   Max. Damping (<1)    DampMax         ....    0.9800
   Min. Damping (>=0)   DampMin         ....    0.0000
   Turn off err/grad.   DampErr         ....    0.1000

SCF Procedure:
 Maximum # iterations   MaxIter         ....   125
 SCF integral mode      SCFMode         .... Direct
   Integral package                     .... SHARK and LIBINT hybrid scheme
 Reset frequency        DirectResetFreq ....    20
 Integral Threshold     Thresh          ....  1.000e-12 Eh
 Primitive CutOff       TCut            ....  1.000e-13 Eh

Convergence Tolerance:
 Convergence Check Mode ConvCheckMode   .... Total+1el-Energy
 Convergence forced     ConvForced      .... 0
 Energy Change          TolE            ....  1.000e-08 Eh
 1-El. energy change                    ....  1.000e-05 Eh
 Orbital Gradient       TolG            ....  1.000e-05
 Orbital Rotation angle TolX            ....  1.000e-05
 DIIS Error             TolErr          ....  5.000e-07

------------------------------
INITIAL GUESS: MODEL POTENTIAL
------------------------------
Loading Hartree-Fock densities                     ... done
Calculating cut-offs                               ... done
Initializing the effective Hamiltonian             ... done
Setting up the integral package (SHARK)            ... done
Starting the Coulomb interaction                   ... done (   0.6 sec)
Making the grid                                    ... done (   0.3 sec)
Mapping shells                                     ... done
Starting the XC term evaluation                    ... done (   0.9 sec)
  promolecular density results
     # of electrons  =    151.997902447
     EX              =   -152.479471739
     EC              =     -5.314694190
     EX+EC           =   -157.794165929
Transforming the Hamiltonian                       ... done (   0.0 sec)
Diagonalizing the Hamiltonian                      ... done (   0.0 sec)
Back transforming the eigenvectors                 ... done (   0.0 sec)
Now organizing SCF variables                       ... done
                      ------------------
                      INITIAL GUESS DONE (   1.9 sec)
                      ------------------
             **** ENERGY FILE WAS UPDATED (Diclofenac\Diclofenac_PBE_6-311+G\Diclofenac_PBE_6-311+G.orcainp.en.tmp) ****
Finished Guess after   2.0 sec
Maximum memory used throughout the entire GUESS-calculation: 54.4 MB

-------------------------------------------------------------------------------------------
                                      ORCA LEAN-SCF
                              memory conserving SCF solver
-------------------------------------------------------------------------------------------

--------------------
CPCM SOLVATION MODEL
--------------------
CPCM parameters:
  Epsilon                                         ...      80.1510
  Refrac                                          ...       1.3328
  Rsolv                                           ...       1.3000
  Surface type                                    ... GAUSSIAN VDW
  Discretization scheme                           ... Constant charge density
    Threshold for H atoms                         ...       5.0000 (charges/Ang^2)
    Threshold for non-H atoms                     ...       5.0000 (charges/Ang^2)
  Epsilon function type                           ...         CPCM
Solvent:                                          ... WATER
Radii:
  Scheme                                          ... Element-dependent radii
  Radius for O  used is    3.4469 Bohr (=   1.8240 Ang.)
  Radius for C  used is    3.8550 Bohr (=   2.0400 Ang.)
  Radius for N  used is    3.5149 Bohr (=   1.8600 Ang.)
  Radius for Cl used is    3.9684 Bohr (=   2.1000 Ang.)
  Radius for H  used is    2.4944 Bohr (=   1.3200 Ang.)
Calculating surface                               ...        done! (  0.0s)
Cavity surface points                             ...         2854
Cavity Volume                                     ...    2166.3234
Cavity Surface-area                               ...    1096.9655
Calculating surface distance matrix               ...        done! (  0.0s)
Performing Cholesky decomposition & store         ...        done! (  0.2s)
Overall time for CPCM initialization              ...                 0.2s

----------------------------------------D-I-I-S--------------------------------------------
Iteration    Energy (Eh)           Delta-E    RMSDP     MaxDP     DIISErr   Damp  Time(sec)
-------------------------------------------------------------------------------------------
               ***  Starting incremental Fock matrix formation  ***
    1    -1664.3203009269552695     0.00e+00  3.98e-02  4.26e+00  2.87e-01  0.700   6.2
    2    -1664.5079174089867138    -1.88e-01  2.71e-02  2.64e+00  8.16e-02  0.700   5.8
                               ***Turning on AO-DIIS***
    3    -1664.5678149150401168    -5.99e-02  9.55e-03  9.32e-01  2.73e-02  0.700   5.7
    4    -1664.6059890116791848    -3.82e-02  2.12e-02  2.61e+00  1.25e-02  0.000   5.5
    5    -1664.6933584484083894    -8.74e-02  7.20e-03  5.74e-01  8.92e-03  0.000   5.6
    6    -1664.6944810621782835    -1.12e-03  1.96e-03  1.91e-01  3.84e-03  0.000   5.3
                              *** Initializing SOSCF ***
---------------------------------------S-O-S-C-F--------------------------------------
Iteration    Energy (Eh)           Delta-E    RMSDP     MaxDP     MaxGrad    Time(sec)
--------------------------------------------------------------------------------------
    7    -1664.6946048202255497    -1.24e-04  5.77e-04  5.29e-02  1.99e-03     5.2
               *** Restarting incremental Fock matrix formation ***
    8    -1664.6946236862429487    -1.89e-05  7.59e-04  7.48e-02  1.38e-04     6.1
    9    -1664.6946176273315814     6.06e-06  2.96e-04  3.24e-02  4.34e-04     4.9
   10    -1664.6946276501851116    -1.00e-05  3.76e-04  3.68e-02  1.06e-04     4.7
   11    -1664.6946271312760928     5.19e-07  1.51e-04  1.79e-02  1.07e-04     4.7
   12    -1664.6946283297581886    -1.20e-06  1.46e-04  9.48e-03  4.95e-05     4.6
   13    -1664.6946281732627995     1.56e-07  1.09e-04  9.39e-03  5.87e-05     4.5
   14    -1664.6946284182984073    -2.45e-07  2.03e-04  2.24e-02  8.89e-06     4.4
   15    -1664.6946284091256985     9.17e-09  5.63e-05  4.01e-03  9.72e-06     4.3
                 **** Energy Check signals convergence ****

               *****************************************************
               *                     SUCCESS                       *
               *           SCF CONVERGED AFTER  15 CYCLES          *
               *****************************************************

             **** ENERGY FILE WAS UPDATED (Diclofenac\Diclofenac_PBE_6-311+G\Diclofenac_PBE_6-311+G.orcainp.en.tmp) ****

----------------
TOTAL SCF ENERGY
----------------

Total Energy       :      -1664.69462840912570 Eh          -45298.64378 eV

Components:
Nuclear Repulsion  :       1645.21700487485873 Eh           44768.63070 eV
Electronic Energy  :      -3309.88741596365662 Eh          -90066.61549 eV
One Electron Energy:      -5552.97856605768538 Eh         -151104.22877 eV
Two Electron Energy:       2243.09115009402876 Eh           61037.61329 eV
CPCM Dielectric    :         -0.02421732032770 Eh              -0.65899 eV

Virial components:
Potential Energy   :      -3324.80404384095209 Eh          -90472.51757 eV
Kinetic Energy     :       1660.10941543182639 Eh           45173.87379 eV
Virial Ratio       :          2.00276199444126

DFT components:
N(Alpha)           :       76.000018326893 electrons
N(Beta)            :       76.000018326893 electrons
N(Total)           :      152.000036653786 electrons
E(X)               :     -154.119942474700 Eh       
E(C)               :       -5.305505411460 Eh       
E(XC)              :     -159.425447886161 Eh       

CPCM Solvation Model Properties:
Surface-charge          :         -0.03339430007597
Corrected charge        :         -0.00000000000000
Outlying charge corr.   :          0.00006232470007 Eh               0.00170 eV
Free-energy (cav+disp)  :  This term is not implemented in the current solvation scheme

---------------
SCF CONVERGENCE
---------------

  Last Energy change         ...   -9.1727e-09  Tolerance :   1.0000e-08
  Last MAX-Density change    ...    4.0113e-03  Tolerance :   1.0000e-07
  Last RMS-Density change    ...    5.6290e-05  Tolerance :   5.0000e-09
  Last DIIS Error            ...    1.9851e-03  Tolerance :   5.0000e-07
  Last Orbital Gradient      ...    9.7238e-06  Tolerance :   1.0000e-05
  Last Orbital Rotation      ...    2.0500e-05  Tolerance :   1.0000e-05


----------------
ORBITAL ENERGIES
----------------

  NO   OCC          E(Eh)            E(eV) 
   0   2.0000    -100.714325     -2740.5761 
   1   2.0000    -100.709655     -2740.4490 
   2   2.0000     -18.799506      -511.5606 
   3   2.0000     -18.749858      -510.2096 
   4   2.0000     -14.026366      -381.6768 
   5   2.0000     -10.023134      -272.7433 
   6   2.0000      -9.962876      -271.1036 
   7   2.0000      -9.962237      -271.0863 
   8   2.0000      -9.961356      -271.0623 
   9   2.0000      -9.940485      -270.4943 
  10   2.0000      -9.912651      -269.7369 
  11   2.0000      -9.905067      -269.5306 
  12   2.0000      -9.904249      -269.5083 
  13   2.0000      -9.903892      -269.4986 
  14   2.0000      -9.899095      -269.3681 
  15   2.0000      -9.893637      -269.2195 
  16   2.0000      -9.892468      -269.1877 
  17   2.0000      -9.890153      -269.1248 
  18   2.0000      -9.887403      -269.0499 
  19   2.0000      -9.207794      -250.5568 
  20   2.0000      -9.203257      -250.4334 
  21   2.0000      -7.034462      -191.4174 
  22   2.0000      -7.030056      -191.2976 
  23   2.0000      -7.023413      -191.1168 
  24   2.0000      -7.023162      -191.1099 
  25   2.0000      -7.018989      -190.9964 
  26   2.0000      -7.018326      -190.9784 
  27   2.0000      -1.019398       -27.7392 
  28   2.0000      -0.944209       -25.6932 
  29   2.0000      -0.891217       -24.2513 
  30   2.0000      -0.832220       -22.6459 
  31   2.0000      -0.820236       -22.3197 
  32   2.0000      -0.786606       -21.4046 
  33   2.0000      -0.765129       -20.8202 
  34   2.0000      -0.726499       -19.7690 
  35   2.0000      -0.699542       -19.0355 
  36   2.0000      -0.671731       -18.2787 
  37   2.0000      -0.668076       -18.1793 
  38   2.0000      -0.649250       -17.6670 
  39   2.0000      -0.579278       -15.7630 
  40   2.0000      -0.575661       -15.6645 
  41   2.0000      -0.568057       -15.4576 
  42   2.0000      -0.548992       -14.9388 
  43   2.0000      -0.537937       -14.6380 
  44   2.0000      -0.495245       -13.4763 
  45   2.0000      -0.488087       -13.2815 
  46   2.0000      -0.471761       -12.8373 
  47   2.0000      -0.456055       -12.4099 
  48   2.0000      -0.447073       -12.1655 
  49   2.0000      -0.438183       -11.9236 
  50   2.0000      -0.423675       -11.5288 
  51   2.0000      -0.418452       -11.3867 
  52   2.0000      -0.412673       -11.2294 
  53   2.0000      -0.407583       -11.0909 
  54   2.0000      -0.406534       -11.0624 
  55   2.0000      -0.396431       -10.7874 
  56   2.0000      -0.381614       -10.3842 
  57   2.0000      -0.367922       -10.0117 
  58   2.0000      -0.362140        -9.8543 
  59   2.0000      -0.353461        -9.6182 
  60   2.0000      -0.348796        -9.4912 
  61   2.0000      -0.340332        -9.2609 
  62   2.0000      -0.337563        -9.1855 
  63   2.0000      -0.334509        -9.1024 
  64   2.0000      -0.316621        -8.6157 
  65   2.0000      -0.313506        -8.5309 
  66   2.0000      -0.298850        -8.1321 
  67   2.0000      -0.297431        -8.0935 
  68   2.0000      -0.294211        -8.0059 
  69   2.0000      -0.293048        -7.9742 
  70   2.0000      -0.285519        -7.7694 
  71   2.0000      -0.256375        -6.9763 
  72   2.0000      -0.240313        -6.5393 
  73   2.0000      -0.230476        -6.2716 
  74   2.0000      -0.228631        -6.2214 
  75   2.0000      -0.202223        -5.5028 
  76   0.0000      -0.067238        -1.8296 
  77   0.0000      -0.065438        -1.7807 
  78   0.0000      -0.058956        -1.6043 
  79   0.0000      -0.049796        -1.3550 
  80   0.0000      -0.037029        -1.0076 
  81   0.0000      -0.035730        -0.9723 
  82   0.0000      -0.014196        -0.3863 
  83   0.0000      -0.002965        -0.0807 
  84   0.0000       0.000983         0.0267 
  85   0.0000       0.004771         0.1298 
  86   0.0000       0.012504         0.3402 
*Only the first 10 virtual orbitals were printed.

                    ********************************
                    * MULLIKEN POPULATION ANALYSIS *
                    ********************************

-----------------------
MULLIKEN ATOMIC CHARGES
-----------------------
   0 O :   -0.189657
   1 C :   -0.022352
   2 O :   -0.317381
   3 C :   -0.672048
   4 C :    1.207798
   5 C :   -0.436003
   6 C :   -0.074128
   7 C :   -0.295304
   8 C :    0.024417
   9 C :   -1.165232
  10 N :    0.457305
  11 C :   -4.361017
  12 C :    2.195014
  13 Cl:    0.234127
  14 C :   -0.370969
  15 C :   -0.001913
  16 C :   -0.566561
  17 C :    1.711667
  18 Cl:    0.327557
  19 H :    0.348907
  20 H :    0.229982
  21 H :    0.255200
  22 H :    0.169580
  23 H :    0.166337
  24 H :    0.167124
  25 H :    0.188572
  26 H :    0.227877
  27 H :    0.190274
  28 H :    0.179401
  29 H :    0.191424
Sum of atomic charges:   -0.0000000

--------------------------------
MULLIKEN REDUCED ORBITAL CHARGES
--------------------------------
  0 O s       :     3.692814  s :     3.692814
      pz      :     1.578909  p :     4.485087
      px      :     1.662714
      py      :     1.243465
      dz2     :     0.001534  d :     0.011756
      dxz     :     0.001987
      dyz     :     0.005164
      dx2y2   :     0.001551
      dxy     :     0.001520

  1 C s       :     3.317458  s :     3.317458
      pz      :     0.918794  p :     2.511021
      px      :     0.863505
      py      :     0.728722
      dz2     :     0.047425  d :     0.193873
      dxz     :     0.018903
      dyz     :     0.052322
      dx2y2   :     0.038560
      dxy     :     0.036663

  2 O s       :     3.875063  s :     3.875063
      pz      :     1.634289  p :     4.427582
      px      :     1.385113
      py      :     1.408180
      dz2     :     0.002021  d :     0.014736
      dxz     :     0.001511
      dyz     :     0.004270
      dx2y2   :     0.003362
      dxy     :     0.003572

  3 C s       :     3.625618  s :     3.625618
      pz      :     0.927669  p :     2.994827
      px      :     0.827947
      py      :     1.239211
      dz2     :     0.013559  d :     0.051603
      dxz     :     0.011754
      dyz     :     0.006722
      dx2y2   :     0.009238
      dxy     :     0.010330

  4 C s       :     2.160787  s :     2.160787
      pz      :     1.001806  p :     2.564187
      px      :     0.303268
      py      :     1.259113
      dz2     :     0.004825  d :     0.067228
      dxz     :     0.009067
      dyz     :     0.010845
      dx2y2   :     0.021634
      dxy     :     0.020857

  5 C s       :     3.618969  s :     3.618969
      pz      :     0.998490  p :     2.762711
      px      :     0.782964
      py      :     0.981256
      dz2     :     0.003710  d :     0.054323
      dxz     :     0.009902
      dyz     :     0.004980
      dx2y2   :     0.017493
      dxy     :     0.018238

  6 C s       :     3.237897  s :     3.237897
      pz      :     0.967842  p :     2.780498
      px      :     0.885998
      py      :     0.926658
      dz2     :     0.004255  d :     0.055733
      dxz     :     0.007909
      dyz     :     0.006378
      dx2y2   :     0.015767
      dxy     :     0.021425

  7 C s       :     3.458671  s :     3.458671
      pz      :     0.972275  p :     2.780464
      px      :     1.052096
      py      :     0.756094
      dz2     :     0.003810  d :     0.056169
      dxz     :     0.004326
      dyz     :     0.010664
      dx2y2   :     0.021119
      dxy     :     0.016251

  8 C s       :     2.941178  s :     2.941178
      pz      :     1.011227  p :     2.981610
      px      :     0.963815
      py      :     1.006569
      dz2     :     0.004011  d :     0.052795
      dxz     :     0.009724
      dyz     :     0.005159
      dx2y2   :     0.018843
      dxy     :     0.015059

  9 C s       :     3.335315  s :     3.335315
      pz      :     1.054114  p :     3.739812
      px      :     1.423620
      py      :     1.262079
      dz2     :     0.006386  d :     0.090105
      dxz     :     0.013684
      dyz     :     0.014572
      dx2y2   :     0.025628
      dxy     :     0.029835

 10 N s       :     3.102813  s :     3.102813
      pz      :     1.271929  p :     3.411995
      px      :     1.282186
      py      :     0.857880
      dz2     :     0.005299  d :     0.027887
      dxz     :     0.004346
      dyz     :     0.004549
      dx2y2   :     0.006009
      dxy     :     0.007684

 11 C s       :     4.615708  s :     4.615708
      pz      :     2.987165  p :     5.659145
      px      :     1.520868
      py      :     1.151113
      dz2     :     0.015812  d :     0.086164
      dxz     :     0.009652
      dyz     :     0.025681
      dx2y2   :     0.016911
      dxy     :     0.018109

 12 C s       :     1.370505  s :     1.370505
      pz      :     1.443011  p :     2.354246
      px      :     0.851592
      py      :     0.059643
      dz2     :     0.017766  d :     0.080236
      dxz     :     0.012324
      dyz     :     0.022443
      dx2y2   :     0.013720
      dxy     :     0.013984

 13 Cls       :     5.722505  s :     5.722505
      pz      :     3.484735  p :    11.011863
      px      :     3.867977
      py      :     3.659150
      dz2     :     0.008062  d :     0.031505
      dxz     :     0.005626
      dyz     :     0.011119
      dx2y2   :     0.002553
      dxy     :     0.004145

 14 C s       :     3.600753  s :     3.600753
      pz      :     0.960913  p :     2.716202
      px      :     1.014611
      py      :     0.740679
      dz2     :     0.009866  d :     0.054014
      dxz     :     0.008679
      dyz     :     0.012280
      dx2y2   :     0.011788
      dxy     :     0.011401

 15 C s       :     3.194182  s :     3.194182
      pz      :     0.861353  p :     2.752443
      px      :     0.936227
      py      :     0.954864
      dz2     :     0.014143  d :     0.055288
      dxz     :     0.009123
      dyz     :     0.011331
      dx2y2   :     0.010703
      dxy     :     0.009988

 16 C s       :     3.798477  s :     3.798477
      pz      :     0.966599  p :     2.714019
      px      :     0.881361
      py      :     0.866059
      dz2     :     0.009482  d :     0.054064
      dxz     :     0.006767
      dyz     :     0.013813
      dx2y2   :     0.011632
      dxy     :     0.012371

 17 C s       :     1.568091  s :     1.568091
      pz      :     1.452478  p :     2.640253
      px      :     1.083258
      py      :     0.104516
      dz2     :     0.015598  d :     0.079988
      dxz     :     0.013081
      dyz     :     0.019713
      dx2y2   :     0.015452
      dxy     :     0.016145

 18 Cls       :     5.630219  s :     5.630219
      pz      :     3.528148  p :    11.010417
      px      :     3.584199
      py      :     3.898071
      dz2     :     0.007117  d :     0.031807
      dxz     :     0.011688
      dyz     :     0.004551
      dx2y2   :     0.005114
      dxy     :     0.003337

 19 H s       :     0.586208  s :     0.586208
      pz      :     0.020853  p :     0.064885
      px      :     0.019437
      py      :     0.024595

 20 H s       :     0.748046  s :     0.748046
      pz      :     0.005569  p :     0.021973
      px      :     0.005067
      py      :     0.011337

 21 H s       :     0.721827  s :     0.721827
      pz      :     0.006443  p :     0.022973
      px      :     0.007765
      py      :     0.008766

 22 H s       :     0.805604  s :     0.805604
      pz      :     0.006328  p :     0.024816
      px      :     0.005525
      py      :     0.012964

 23 H s       :     0.808845  s :     0.808845
      pz      :     0.006050  p :     0.024818
      px      :     0.008372
      py      :     0.010396

 24 H s       :     0.808099  s :     0.808099
      pz      :     0.006191  p :     0.024777
      px      :     0.013879
      py      :     0.004707

 25 H s       :     0.786126  s :     0.786126
      pz      :     0.006462  p :     0.025303
      px      :     0.005979
      py      :     0.012862

 26 H s       :     0.727118  s :     0.727118
      pz      :     0.020347  p :     0.045005
      px      :     0.016041
      py      :     0.008618

 27 H s       :     0.784506  s :     0.784506
      pz      :     0.010225  p :     0.025220
      px      :     0.009510
      py      :     0.005484

 28 H s       :     0.795516  s :     0.795516
      pz      :     0.004970  p :     0.025083
      px      :     0.006602
      py      :     0.013512

 29 H s       :     0.783286  s :     0.783286
      pz      :     0.009835  p :     0.025290
      px      :     0.006398
      py      :     0.009057



                     *******************************
                     * LOEWDIN POPULATION ANALYSIS *
                     *******************************

----------------------
LOEWDIN ATOMIC CHARGES
----------------------
   0 O :   -0.048643
   1 C :   -0.015032
   2 O :   -0.210705
   3 C :   -0.078102
   4 C :   -0.105065
   5 C :   -0.053106
   6 C :   -0.072248
   7 C :   -0.063249
   8 C :   -0.064961
   9 C :   -0.094761
  10 N :   -0.097825
  11 C :   -0.115039
  12 C :   -0.265421
  13 Cl:    0.299793
  14 C :   -0.083115
  15 C :   -0.063432
  16 C :   -0.081717
  17 C :   -0.261202
  18 Cl:    0.277686
  19 H :    0.150989
  20 H :    0.112191
  21 H :    0.117535
  22 H :    0.100032
  23 H :    0.086589
  24 H :    0.088174
  25 H :    0.106223
  26 H :    0.137428
  27 H :    0.101784
  28 H :    0.093573
  29 H :    0.101626

-------------------------------
LOEWDIN REDUCED ORBITAL CHARGES
-------------------------------
  0 O s       :     3.394989  s :     3.394989
      pz      :     1.643434  p :     4.635212
      px      :     1.658086
      py      :     1.333692
      dz2     :     0.001728  d :     0.018442
      dxz     :     0.001991
      dyz     :     0.008680
      dx2y2   :     0.003539
      dxy     :     0.002504

  1 C s       :     2.779227  s :     2.779227
      pz      :     1.052695  p :     2.823914
      px      :     0.802079
      py      :     0.969141
      dz2     :     0.095003  d :     0.411891
      dxz     :     0.037882
      dyz     :     0.120127
      dx2y2   :     0.084766
      dxy     :     0.074114

  2 O s       :     3.519948  s :     3.519948
      pz      :     1.685118  p :     4.668197
      px      :     1.430647
      py      :     1.552433
      dz2     :     0.002650  d :     0.022559
      dxz     :     0.002234
      dyz     :     0.007594
      dx2y2   :     0.004914
      dxy     :     0.005167

  3 C s       :     2.770583  s :     2.770583
      pz      :     1.034588  p :     3.188517
      px      :     1.049912
      py      :     1.104018
      dz2     :     0.034861  d :     0.119001
      dxz     :     0.024855
      dyz     :     0.015613
      dx2y2   :     0.022286
      dxy     :     0.021386

  4 C s       :     2.777849  s :     2.777849
      pz      :     0.982687  p :     3.166908
      px      :     1.070260
      py      :     1.113961
      dz2     :     0.011952  d :     0.160308
      dxz     :     0.018717
      dyz     :     0.022445
      dx2y2   :     0.054135
      dxy     :     0.053060

  5 C s       :     2.789705  s :     2.789705
      pz      :     0.962620  p :     3.133871
      px      :     1.109663
      py      :     1.061588
      dz2     :     0.008516  d :     0.129530
      dxz     :     0.020642
      dyz     :     0.009476
      dx2y2   :     0.044640
      dxy     :     0.046256

  6 C s       :     2.794613  s :     2.794613
      pz      :     0.966010  p :     3.145756
      px      :     1.092291
      py      :     1.087456
      dz2     :     0.009539  d :     0.131879
      dxz     :     0.016405
      dyz     :     0.012815
      dx2y2   :     0.042536
      dxy     :     0.050585

  7 C s       :     2.794940  s :     2.794940
      pz      :     0.957867  p :     3.135795
      px      :     1.065625
      py      :     1.112303
      dz2     :     0.008693  d :     0.132514
      dxz     :     0.007696
      dyz     :     0.022651
      dx2y2   :     0.050230
      dxy     :     0.043244

  8 C s       :     2.783483  s :     2.783483
      pz      :     0.984979  p :     3.154531
      px      :     1.084750
      py      :     1.084803
      dz2     :     0.009142  d :     0.126947
      dxz     :     0.020836
      dyz     :     0.009529
      dx2y2   :     0.046777
      dxy     :     0.040663

  9 C s       :     2.760158  s :     2.760158
      pz      :     1.000384  p :     3.124472
      px      :     1.091162
      py      :     1.032926
      dz2     :     0.015865  d :     0.210131
      dxz     :     0.027780
      dyz     :     0.030294
      dx2y2   :     0.063021
      dxy     :     0.073172

 10 N s       :     3.034752  s :     3.034752
      pz      :     1.444661  p :     4.006983
      px      :     1.372989
      py      :     1.189333
      dz2     :     0.009356  d :     0.056090
      dxz     :     0.007554
      dyz     :     0.008101
      dx2y2   :     0.014036
      dxy     :     0.017043

 11 C s       :     2.767747  s :     2.767747
      pz      :     1.091954  p :     3.143614
      px      :     1.044456
      py      :     1.007204
      dz2     :     0.036794  d :     0.203679
      dxz     :     0.025214
      dyz     :     0.059525
      dx2y2   :     0.040548
      dxy     :     0.041597

 12 C s       :     2.827143  s :     2.827143
      pz      :     1.057959  p :     3.250409
      px      :     1.087082
      py      :     1.105367
      dz2     :     0.041163  d :     0.187869
      dxz     :     0.029853
      dyz     :     0.053181
      dx2y2   :     0.032412
      dxy     :     0.031260

 13 Cls       :     5.620456  s :     5.620456
      pz      :     3.500908  p :    11.044755
      px      :     3.846286
      py      :     3.697560
      dz2     :     0.008835  d :     0.034996
      dxz     :     0.006171
      dyz     :     0.012628
      dx2y2   :     0.002831
      dxy     :     0.004531

 14 C s       :     2.796042  s :     2.796042
      pz      :     1.059907  p :     3.156290
      px      :     1.007565
      py      :     1.088818
      dz2     :     0.022799  d :     0.130782
      dxz     :     0.017735
      dyz     :     0.032831
      dx2y2   :     0.029489
      dxy     :     0.027929

 15 C s       :     2.794425  s :     2.794425
      pz      :     1.058267  p :     3.138056
      px      :     1.018959
      py      :     1.060830
      dz2     :     0.031312  d :     0.130952
      dxz     :     0.024168
      dyz     :     0.029597
      dx2y2   :     0.023594
      dxy     :     0.022281

 16 C s       :     2.795539  s :     2.795539
      pz      :     1.054145  p :     3.155459
      px      :     1.033478
      py      :     1.067836
      dz2     :     0.021679  d :     0.130719
      dxz     :     0.017547
      dyz     :     0.031880
      dx2y2   :     0.029510
      dxy     :     0.030103

 17 C s       :     2.830630  s :     2.830630
      pz      :     1.040529  p :     3.242184
      px      :     1.057037
      py      :     1.144618
      dz2     :     0.034934  d :     0.188389
      dxz     :     0.032580
      dyz     :     0.046908
      dx2y2   :     0.035926
      dxy     :     0.038040

 18 Cls       :     5.635155  s :     5.635155
      pz      :     3.573597  p :    11.051775
      px      :     3.627706
      py      :     3.850471
      dz2     :     0.007681  d :     0.035385
      dxz     :     0.013186
      dyz     :     0.005099
      dx2y2   :     0.005686
      dxy     :     0.003733

 19 H s       :     0.663017  s :     0.663017
      pz      :     0.068282  p :     0.185993
      px      :     0.052321
      py      :     0.065390

 20 H s       :     0.818267  s :     0.818267
      pz      :     0.016468  p :     0.069542
      px      :     0.014769
      py      :     0.038305

 21 H s       :     0.808683  s :     0.808683
      pz      :     0.020376  p :     0.073781
      px      :     0.025436
      py      :     0.027970

 22 H s       :     0.828746  s :     0.828746
      pz      :     0.015717  p :     0.071222
      px      :     0.015456
      py      :     0.040049

 23 H s       :     0.841894  s :     0.841894
      pz      :     0.014768  p :     0.071517
      px      :     0.025016
      py      :     0.031734

 24 H s       :     0.840585  s :     0.840585
      pz      :     0.015127  p :     0.071241
      px      :     0.043001
      py      :     0.013113

 25 H s       :     0.820518  s :     0.820518
      pz      :     0.016272  p :     0.073260
      px      :     0.017205
      py      :     0.039783

 26 H s       :     0.726549  s :     0.726549
      pz      :     0.069240  p :     0.136022
      px      :     0.046598
      py      :     0.020184

 27 H s       :     0.826567  s :     0.826567
      pz      :     0.029949  p :     0.071649
      px      :     0.027085
      py      :     0.014615

 28 H s       :     0.834895  s :     0.834895
      pz      :     0.012875  p :     0.071531
      px      :     0.017410
      py      :     0.041246

 29 H s       :     0.826564  s :     0.826564
      pz      :     0.028624  p :     0.071810
      px      :     0.016684
      py      :     0.026502



                      *****************************
                      * MAYER POPULATION ANALYSIS *
                      *****************************

  NA   - Mulliken gross atomic population
  ZA   - Total nuclear charge
  QA   - Mulliken gross atomic charge
  VA   - Mayer's total valence
  BVA  - Mayer's bonded valence
  FA   - Mayer's free valence

  ATOM       NA         ZA         QA         VA         BVA        FA
  0 O      8.1897     8.0000    -0.1897     1.9828     1.9828     0.0000
  1 C      6.0224     6.0000    -0.0224     4.1377     4.1377     0.0000
  2 O      8.3174     8.0000    -0.3174     1.9428     1.9428    -0.0000
  3 C      6.6720     6.0000    -0.6720     3.1832     3.1832    -0.0000
  4 C      4.7922     6.0000     1.2078     2.3178     2.3178     0.0000
  5 C      6.4360     6.0000    -0.4360     3.2030     3.2030     0.0000
  6 C      6.0741     6.0000    -0.0741     3.5320     3.5320    -0.0000
  7 C      6.2953     6.0000    -0.2953     3.5009     3.5009    -0.0000
  8 C      5.9756     6.0000     0.0244     4.2033     4.2033    -0.0000
  9 C      7.1652     6.0000    -1.1652     6.4277     6.4277     0.0000
 10 N      6.5427     7.0000     0.4573     1.7908     1.7908    -0.0000
 11 C     10.3610     6.0000    -4.3610     4.7657     4.7657    -0.0000
 12 C      3.8050     6.0000     2.1950    -0.8807    -0.8807    -0.0000
 13 Cl    16.7659    17.0000     0.2341     1.2054     1.2054     0.0000
 14 C      6.3710     6.0000    -0.3710     3.8383     3.8383     0.0000
 15 C      6.0019     6.0000    -0.0019     3.3568     3.3568    -0.0000
 16 C      6.5666     6.0000    -0.5666     4.5393     4.5393     0.0000
 17 C      4.2883     6.0000     1.7117     0.3791     0.3791    -0.0000
 18 Cl    16.6724    17.0000     0.3276     1.1638     1.1638     0.0000
 19 H      0.6511     1.0000     0.3489     0.9620     0.9620     0.0000
 20 H      0.7700     1.0000     0.2300     0.9284     0.9284    -0.0000
 21 H      0.7448     1.0000     0.2552     0.9220     0.9220    -0.0000
 22 H      0.8304     1.0000     0.1696     0.9552     0.9552    -0.0000
 23 H      0.8337     1.0000     0.1663     0.9503     0.9503     0.0000
 24 H      0.8329     1.0000     0.1671     0.9513     0.9513    -0.0000
 25 H      0.8114     1.0000     0.1886     0.9484     0.9484     0.0000
 26 H      0.7721     1.0000     0.2279     1.0256     1.0256     0.0000
 27 H      0.8097     1.0000     0.1903     0.9430     0.9430    -0.0000
 28 H      0.8206     1.0000     0.1794     0.9478     0.9478    -0.0000
 29 H      0.8086     1.0000     0.1914     0.9394     0.9394    -0.0000

  Mayer bond orders larger than 0.100000
B(  0-O ,  1-C ) :   1.2044 B(  0-O ,  5-C ) :  -0.1739 B(  0-O ,  8-C ) :   0.1045 
B(  0-O , 19-H ) :   0.7970 B(  1-C ,  2-O ) :   1.9577 B(  1-C ,  3-C ) :   1.0138 
B(  1-C ,  4-C ) :  -0.1893 B(  2-O ,  3-C ) :   0.1090 B(  2-O ,  4-C ) :  -0.1434 
B(  3-C ,  5-C ) :  -0.3217 B(  3-C ,  9-C ) :   0.5557 B(  3-C , 10-N ) :  -0.1149 
B(  3-C , 11-C ) :  -0.3385 B(  3-C , 14-C ) :  -0.2751 B(  3-C , 17-C ) :   0.5872 
B(  3-C , 20-H ) :   1.0087 B(  3-C , 21-H ) :   1.1161 B(  4-C ,  5-C ) :   0.9033 
B(  4-C ,  6-C ) :  -0.3254 B(  4-C ,  7-C ) :   0.3296 B(  4-C ,  8-C ) :   0.4549 
B(  4-C ,  9-C ) :   2.2039 B(  4-C , 10-N ) :  -0.5375 B(  4-C , 11-C ) :  -0.3360 
B(  4-C , 12-C ) :  -1.0649 B(  4-C , 13-Cl) :   0.1976 B(  4-C , 14-C ) :   1.5069 
B(  4-C , 15-C ) :   0.2017 B(  4-C , 16-C ) :   0.1697 B(  4-C , 17-C ) :  -0.4418 
B(  4-C , 20-H ) :  -0.1276 B(  4-C , 21-H ) :  -0.2836 B(  4-C , 22-H ) :  -0.1404 
B(  4-C , 25-H ) :   0.1057 B(  4-C , 26-H ) :  -0.1122 B(  5-C ,  6-C ) :   1.3368 
B(  5-C ,  7-C ) :   0.1586 B(  5-C ,  8-C ) :  -0.1955 B(  5-C ,  9-C ) :   0.7740 
B(  5-C , 11-C ) :  -0.1623 B(  5-C , 12-C ) :   0.1640 B(  5-C , 13-Cl) :  -0.1100 
[...]
      dz2     :     0.016170  d :     0.204827
      dxz     :     0.029746
      dyz     :     0.030667
      dx2y2   :     0.055690
      dxy     :     0.072553

 10 N s       :     3.032795  s :     3.032795
      pz      :     1.524133  p :     3.996564
      px      :     1.273061
      py      :     1.199369
      dz2     :     0.005543  d :     0.057442
      dxz     :     0.009279
      dyz     :     0.008472
      dx2y2   :     0.016529
      dxy     :     0.017619

 11 C s       :     2.764057  s :     2.764057
      pz      :     1.105034  p :     3.160884
      px      :     1.045259
      py      :     1.010591
      dz2     :     0.039229  d :     0.208926
      dxz     :     0.027902
      dyz     :     0.066419
      dx2y2   :     0.037809
      dxy     :     0.037568

 12 C s       :     2.831772  s :     2.831772
      pz      :     1.040662  p :     3.223538
      px      :     1.073557
      py      :     1.109320
      dz2     :     0.039498  d :     0.184750
      dxz     :     0.027576
      dyz     :     0.055928
      dx2y2   :     0.031293
      dxy     :     0.030455

 13 Cls       :     5.630379  s :     5.630379
      pz      :     3.512942  p :    11.049048
      px      :     3.850797
      py      :     3.685310
      dz2     :     0.007767  d :     0.032271
      dxz     :     0.005434
      dyz     :     0.012188
      dx2y2   :     0.002655
      dxy     :     0.004227

 14 C s       :     2.796723  s :     2.796723
      pz      :     1.066567  p :     3.152784
      px      :     0.997600
      py      :     1.088617
      dz2     :     0.025633  d :     0.129048
      dxz     :     0.016109
      dyz     :     0.033918
      dx2y2   :     0.027356
      dxy     :     0.026032

 15 C s       :     2.798184  s :     2.798184
      pz      :     1.065431  p :     3.121768
      px      :     0.994816
      py      :     1.061521
      dz2     :     0.034212  d :     0.129029
      dxz     :     0.023681
      dyz     :     0.032509
      dx2y2   :     0.020936
      dxy     :     0.017691

 16 C s       :     2.796783  s :     2.796783
      pz      :     1.065294  p :     3.152534
      px      :     1.012713
      py      :     1.074527
      dz2     :     0.025372  d :     0.129193
      dxz     :     0.015952
      dyz     :     0.034226
      dx2y2   :     0.027162
      dxy     :     0.026480

 17 C s       :     2.834998  s :     2.834998
      pz      :     1.030923  p :     3.217266
      px      :     1.045057
      py      :     1.141286
      dz2     :     0.038107  d :     0.184332
      dxz     :     0.029933
      dyz     :     0.051891
      dx2y2   :     0.030716
      dxy     :     0.033684

 18 Cls       :     5.647467  s :     5.647467
      pz      :     3.529360  p :    11.061384
      px      :     3.704022
      py      :     3.828003
      dz2     :     0.007514  d :     0.032130
      dxz     :     0.011105
      dyz     :     0.006350
      dx2y2   :     0.003814
      dxy     :     0.003346

 19 H s       :     0.659768  s :     0.659768
      pz      :     0.100789  p :     0.215115
      px      :     0.058680
      py      :     0.055645

 20 H s       :     0.820095  s :     0.820095
      pz      :     0.012837  p :     0.069776
      px      :     0.013450
      py      :     0.043489

 21 H s       :     0.807182  s :     0.807182
      pz      :     0.025382  p :     0.072071
      px      :     0.025138
      py      :     0.021552

 22 H s       :     0.831277  s :     0.831277
      pz      :     0.014767  p :     0.070602
      px      :     0.015600
      py      :     0.040235

 23 H s       :     0.840517  s :     0.840517
      pz      :     0.014770  p :     0.070849
      px      :     0.024425
      py      :     0.031655

 24 H s       :     0.839488  s :     0.839488
      pz      :     0.015746  p :     0.070463
      px      :     0.041884
      py      :     0.012834

 25 H s       :     0.816735  s :     0.816735
      pz      :     0.015557  p :     0.073174
      px      :     0.015888
      py      :     0.041729

 26 H s       :     0.722286  s :     0.722286
      pz      :     0.058972  p :     0.134838
      px      :     0.056761
      py      :     0.019105

 27 H s       :     0.823934  s :     0.823934
      pz      :     0.032294  p :     0.071322
      px      :     0.023917
      py      :     0.015111

 28 H s       :     0.832602  s :     0.832602
      pz      :     0.012210  p :     0.070912
      px      :     0.015995
      py      :     0.042707

 29 H s       :     0.824019  s :     0.824019
      pz      :     0.031610  p :     0.071452
      px      :     0.016127
      py      :     0.023715



                      *****************************
                      * MAYER POPULATION ANALYSIS *
                      *****************************

  NA   - Mulliken gross atomic population
  ZA   - Total nuclear charge
  QA   - Mulliken gross atomic charge
  VA   - Mayer's total valence
  BVA  - Mayer's bonded valence
  FA   - Mayer's free valence

  ATOM       NA         ZA         QA         VA         BVA        FA
  0 O      8.2192     8.0000    -0.2192     2.0025     2.0025     0.0000
  1 C      5.9866     6.0000     0.0134     4.0988     4.0988    -0.0000
  2 O      8.3437     8.0000    -0.3437     1.9273     1.9273    -0.0000
  3 C      6.7414     6.0000    -0.7414     3.1574     3.1574     0.0000
  4 C      4.1812     6.0000     1.8188     1.0510     1.0510    -0.0000
  5 C      6.3671     6.0000    -0.3671     2.6700     2.6700     0.0000
  6 C      5.9550     6.0000     0.0450     3.3788     3.3788    -0.0000
  7 C      6.3858     6.0000    -0.3858     3.5623     3.5623     0.0000
  8 C      6.5085     6.0000    -0.5085     5.1597     5.1597     0.0000
  9 C      7.2608     6.0000    -1.2608     5.3941     5.3941     0.0000
 10 N      6.7229     7.0000     0.2771     1.7552     1.7552     0.0000
 11 C      9.7759     6.0000    -3.7759     6.2243     6.2243    -0.0000
 12 C      3.7433     6.0000     2.2567    -1.6702    -1.6702    -0.0000
 13 Cl    16.7655    17.0000     0.2345     1.2170     1.2170     0.0000
 14 C      6.0401     6.0000    -0.0401     3.4500     3.4500    -0.0000
 15 C      5.9228     6.0000     0.0772     3.3221     3.3221     0.0000
 16 C      6.4950     6.0000    -0.4950     4.2916     4.2916    -0.0000
 17 C      5.3399     6.0000     0.6601     3.1546     3.1546     0.0000
 18 Cl    16.6650    17.0000     0.3350     1.2048     1.2048    -0.0000
 19 H      0.6002     1.0000     0.3998     0.9205     0.9205     0.0000
 20 H      0.7771     1.0000     0.2229     0.9337     0.9337    -0.0000
 21 H      0.7330     1.0000     0.2670     0.9177     0.9177     0.0000
 22 H      0.8307     1.0000     0.1693     0.9542     0.9542    -0.0000
 23 H      0.8313     1.0000     0.1687     0.9502     0.9502    -0.0000
 24 H      0.8296     1.0000     0.1704     0.9500     0.9500     0.0000
 25 H      0.8051     1.0000     0.1949     0.9393     0.9393     0.0000
 26 H      0.7438     1.0000     0.2562     1.0087     1.0087    -0.0000
 27 H      0.8087     1.0000     0.1913     0.9452     0.9452    -0.0000
 28 H      0.8141     1.0000     0.1859     0.9465     0.9465    -0.0000
 29 H      0.8068     1.0000     0.1932     0.9416     0.9416    -0.0000

  Mayer bond orders larger than 0.100000
B(  0-O ,  1-C ) :   1.2426 B(  0-O ,  4-C ) :  -0.1252 B(  0-O , 10-N ) :   0.1172 
B(  0-O , 12-C ) :  -0.2166 B(  0-O , 17-C ) :   0.1446 B(  0-O , 19-H ) :   0.7120 
B(  1-C ,  2-O ) :   1.9206 B(  1-C ,  3-C ) :   1.0318 B(  1-C ,  4-C ) :  -0.1396 
B(  1-C ,  5-C ) :  -0.2243 B(  1-C ,  9-C ) :   0.2616 B(  2-O ,  3-C ) :   0.1151 
B(  2-O ,  4-C ) :  -0.1225 B(  3-C ,  4-C ) :  -0.2221 B(  3-C ,  5-C ) :  -0.5751 
B(  3-C ,  9-C ) :   0.8666 B(  3-C , 10-N ) :  -0.1383 B(  3-C , 11-C ) :  -0.2251 
B(  3-C , 14-C ) :  -0.1731 B(  3-C , 17-C ) :   0.3842 B(  3-C , 20-H ) :   1.0068 
B(  3-C , 21-H ) :   1.0786 B(  4-C ,  5-C ) :   0.9944 B(  4-C ,  6-C ) :  -0.2280 
B(  4-C ,  7-C ) :   0.3214 B(  4-C ,  8-C ) :   0.1003 B(  4-C ,  9-C ) :   1.4936 
B(  4-C , 10-N ) :  -0.4684 B(  4-C , 11-C ) :  -0.1590 B(  4-C , 12-C ) :  -0.2731 
B(  4-C , 14-C ) :   2.0970 B(  4-C , 15-C ) :   0.2803 B(  4-C , 16-C ) :   0.1728 
B(  4-C , 17-C ) :  -1.9636 B(  4-C , 18-Cl) :  -0.1523 B(  4-C , 20-H ) :  -0.1044 
B(  4-C , 21-H ) :  -0.1413 B(  4-C , 22-H ) :  -0.1575 B(  4-C , 26-H ) :  -0.2359 
B(  5-C ,  6-C ) :   1.3489 B(  5-C ,  7-C ) :   0.2236 B(  5-C ,  8-C ) :  -0.3433 
B(  5-C ,  9-C ) :   0.3784 B(  5-C , 12-C ) :   0.1783 B(  5-C , 14-C ) :   0.3829 
B(  5-C , 17-C ) :  -0.5170 B(  5-C , 20-H ) :  -0.1028 B(  5-C , 22-H ) :   1.0014 
B(  6-C ,  7-C ) :   1.3400 B(  6-C ,  8-C ) :  -0.1433 B(  6-C , 23-H ) :   0.9768 
B(  7-C ,  8-C ) :   0.9098 B(  7-C , 11-C ) :   0.5778 B(  7-C , 12-C ) :  -0.1590 
B(  7-C , 13-Cl) :  -0.1250 B(  7-C , 14-C ) :  -0.1133 B(  7-C , 15-C ) :  -0.2031 
B(  7-C , 16-C ) :   0.3571 B(  7-C , 17-C ) :  -0.4116 B(  7-C , 24-H ) :   0.9935 
B(  7-C , 25-H ) :  -0.1598 B(  8-C ,  9-C ) :   2.0913 B(  8-C , 10-N ) :  -0.3211 
B(  8-C , 11-C ) :   0.9428 B(  8-C , 12-C ) :  -0.3668 B(  8-C , 13-Cl) :   0.6910 
B(  8-C , 14-C ) :  -1.0599 B(  8-C , 15-C ) :  -0.1013 B(  8-C , 16-C ) :   0.1037 
B(  8-C , 17-C ) :   1.1754 B(  8-C , 18-Cl) :   0.2131 B(  8-C , 25-H ) :   0.8988 
B(  8-C , 26-H ) :   0.1402 B(  9-C , 10-N ) :   1.0426 B(  9-C , 11-C ) :  -0.8577 
B(  9-C , 12-C ) :   0.1846 B(  9-C , 13-Cl) :  -0.5367 B(  9-C , 14-C ) :  -1.4551 
B(  9-C , 16-C ) :  -0.4622 B(  9-C , 17-C ) :   1.7670 B(  9-C , 20-H ) :   0.1174 
B(  9-C , 22-H ) :   0.1587 B(  9-C , 25-H ) :   0.1575 B(  9-C , 26-H ) :   0.1901 
B( 10-N , 11-C ) :   0.8294 B( 10-N , 14-C ) :   0.2376 B( 10-N , 16-C ) :   0.1047 
B( 10-N , 17-C ) :  -0.2231 B( 10-N , 18-Cl) :  -0.2619 B( 10-N , 26-H ) :   0.8091 
B( 11-C , 12-C ) :  -2.3119 B( 11-C , 13-Cl) :   2.2330 B( 11-C , 14-C ) :  -1.9359 
B( 11-C , 15-C ) :  -0.5619 B( 11-C , 16-C ) :   0.3253 B( 11-C , 17-C ) :   3.5975 
B( 11-C , 18-Cl) :   2.8870 B( 11-C , 26-H ) :   0.1900 B( 11-C , 29-H ) :   0.2500 
B( 12-C , 13-Cl) :  -1.6875 B( 12-C , 14-C ) :   2.3572 B( 12-C , 15-C ) :   0.1296 
B( 12-C , 16-C ) :  -0.4681 B( 12-C , 17-C ) :   0.7938 B( 12-C , 18-Cl) :   0.4884 
B( 12-C , 19-H ) :  -0.2043 B( 13-Cl, 14-C ) :   0.1887 B( 13-Cl, 16-C ) :   0.1950 
B( 13-Cl, 17-C ) :   0.1806 B( 14-C , 15-C ) :   1.3464 B( 14-C , 16-C ) :   0.6028 
B( 14-C , 17-C ) :  -0.1583 B( 14-C , 18-Cl) :   0.1817 B( 14-C , 27-H ) :   0.9491 
B( 15-C , 16-C ) :   1.1123 B( 15-C , 17-C ) :   0.1984 B( 15-C , 28-H ) :   0.9627 
B( 16-C , 17-C ) :   1.0610 B( 16-C , 18-Cl) :   0.2982 B( 16-C , 29-H ) :   0.9489 
B( 17-C , 18-Cl) :  -2.6362 B( 17-C , 19-H ) :   0.2006 B( 17-C , 26-H ) :  -0.2093 
B( 17-C , 29-H ) :  -0.1700 B( 18-Cl, 26-H ) :   0.1076 

-------
TIMINGS
-------

Total SCF time: 0 days 0 hours 0 min 47 sec 

Total time                  ....      47.027 sec
Sum of individual times     ....      46.988 sec  ( 99.9%)

SCF preparation             ....       0.300 sec  (  0.6%)
Fock matrix formation       ....      46.134 sec  ( 98.1%)
  Startup                   ....       0.019 sec  (  0.0% of F)
  Split-RI-J                ....      11.109 sec  ( 24.1% of F)
  XC integration            ....      18.572 sec  ( 40.3% of F)
    Basis function eval.    ....       4.425 sec  ( 23.8% of XC)
    Density eval.           ....       5.676 sec  ( 30.6% of XC)
    XC-Functional eval.     ....       0.272 sec  (  1.5% of XC)
    XC-Potential eval.      ....       7.796 sec  ( 42.0% of XC)
  CPCM terms                ....      16.349 sec  ( 35.4% of F)
Diagonalization             ....       0.000 sec  (  0.0%)
Density matrix formation    ....       0.048 sec  (  0.1%)
Total Energy calculation    ....       0.026 sec  (  0.1%)
Population analysis         ....       0.051 sec  (  0.1%)
Orbital Transformation      ....       0.070 sec  (  0.1%)
Orbital Orthonormalization  ....       0.000 sec  (  0.0%)
DIIS solution               ....       0.117 sec  (  0.2%)
SOSCF solution              ....       0.242 sec  (  0.5%)
Finished LeanSCF after  47.1 sec

Maximum memory used throughout the entire LEANSCF-calculation: 103.4 MB

-------------------------   --------------------
FINAL SINGLE POINT ENERGY     -1664.706936483406
-------------------------   --------------------

                                *** OPTIMIZATION RUN DONE ***


------------------------------------------------------------------------------
                              ORCA PROPERTY CALCULATIONS
------------------------------------------------------------------------------

GBWName                                 ... Diclofenac\Diclofenac_PBE_6-311+G\Diclofenac_PBE_6-311+G.orcainp.gbw
Number of atoms                         ...     30
Number of basis functions               ...    500
Max core memory                         ...   1024 MB

Electric properties:
Dipole moment                           ... YES
Quadrupole moment                       ...  NO
Static polarizability (Dipole/Dipole)   ...  NO
Static polarizability (Dipole/Quad.)    ...  NO
Static polarizability (Quad./Quad.)     ...  NO
Static polarizability (Velocity)        ...  NO

Atomic electric properties:
Dipole moment                           ...  NO
Quadrupole moment                       ...  NO
Static polarizability                   ...  NO

Choice of electric origin               ... Center of mass
Position of electric origin             ...     9.234794     4.195075    -2.565314

General magnetic properties:
Magnetizability                         ...  NO

EPR properties:
g-Tensor (aka g-matrix)                 ...  NO
Zero-Field splitting spin-orbit         ...  NO
Zero-field splitting spin-spin          ...  NO
Hyperfine couplings                     ...  NO (   0 nuclei)
Quadrupole couplings                    ...  NO (   0 nuclei)
Contact density                         ...  NO (   0 nuclei)

NMR properties:
Chemical shifts                         ...  NO (   0 nuclei)
Spin-rotation constants                 ...  NO (   0 nuclei)
Spin-spin couplings                     ...  NO (   0 nuclei,    0 pairs)

Choice of magnetic origin               ... GIAO
Position of magnetic origin             ...     0.000000     0.000000     0.000000

Properties with geometric perturbations:
SCF Hessian                             ...  NO
IR spectrum                             ...  NO
VCD spectrum                            ...  NO
X-ray spectroscopy properties:
SCF XES/XAS/RIXS spectra                ...  NO


-------------
DIPOLE MOMENT
-------------

Method             : SCF
Type of density    : Electron Density
Multiplicity       :   1
Irrep              :   0
Energy             : -1664.7069364834064800 Eh
Relativity type    : 
Basis              : AO
                                X                 Y                 Z
Electronic contribution:     -3.581976937       8.939132522      -0.546099222
Nuclear contribution   :      4.962821080      -6.909574071       3.172143783
                        -----------------------------------------
Total Dipole Moment    :      1.380844143       2.029558451       2.626044561
                        -----------------------------------------
Magnitude (a.u.)       :      3.594711127
Magnitude (Debye)      :      9.137029553



--------------------
Rotational spectrum 
--------------------
 
Rotational constants in cm-1:             0.014043             0.007486             0.007371 
Rotational constants in MHz :           421.005791           224.425738           220.988613 

Dipole components along the rotational axes: 
x,y,z [a.u.] :     2.747822     1.205500    -1.979442 
x,y,z [Debye]:     6.984408     3.064138    -5.031342 

 

Dipole moment calculation done in   0.0 sec 

Maximum memory used throughout the entire PROP-calculation: 44.8 MB

--------------------------------
SUGGESTED CITATIONS FOR THIS RUN
--------------------------------

Below you find a list of papers that are relevant to this ORCA run
We neither can nor want to force you to cite these papers, but we appreciate if you do
You receive ORCA, which is the product of decades of hard work by many enthusiastic individuals, for free
The only thing we kindly ask in return is that you cite our papers,
We deeply appreciate it, if you show your appreciation for ORCA by not just citing the generic ORCA reference.

Please note that relegating all ORCA citations to the supporting information does *not* help us.
SI sections are not indexed - citations you put there will not count into any citation statistics
But we need these citations in order to attract the funding resources that allow us to do what we are doing

Therefore, if you are a happy ORCA user, please consider citing a few of the papers listed below in the main body of your paper

In addition to the list printed below, the program has created the file Diclofenac\Diclofenac_PBE_6-311+G\Diclofenac_PBE_6-311+G.orcainp.bibtex that contains the list in bibtex format
You can import this file easily into all common literature databanks and citation aid programs


List of essential papers. We consider these as the minimum necessary citations

  1. Neese,F.
     Software update: the ORCA program system, version 5.0
     WIRES Comput. Molec. Sci., 2022 12(1)e1606
     doi.org/10.1002/wcms.1606

List of papers to cite with high priority. The work reported in these papers was absolutely
necessary for this run to complete.
Our perspective: the developers of density functionals and basis sets usually get cited in chemistry papers
Good! But without the algorithms to do something with them, the functionals or basis sets would not do anything.
Hence, in our opinion, the algorithm design and method developments papers are equally worthy of getting cited

  1. Neese,F.
     An improvement of the resolution of the identity approximation for the formation of the Coulomb matrix
     J. Comp. Chem., 2003 24(14)1740-1747
     doi.org/10.1002/jcc.10318
  2. Garcia-Rates,M.; Neese,F.
     Effect of the Solute Cavity on the Solvation Energy and its Derivatives within the Framework of the Gaussian Charge Scheme
     J. Comput. Chem., 2020 41 922-939
     doi.org/10.1002/jcc.26139
  3. Neese,F.
     The SHARK Integral Generation and Digestion System
     J. Comp. Chem., 2022  1-16
     doi.org/10.1002/jcc.26942

List of suggested additional citations. These are papers that are important in the 'surrounding' of 
of this run, or papers that preceded the highly important papers. If you like your results we are grateful for a citation.

  1. Neese,F.
     The ORCA program system
     WIRES Comput. Molec. Sci., 2012 2(1)73-78
     doi.org/10.1002/wcms.81
  2. Neese,F.
     Software update: the ORCA program system, version 4.0
     WIRES Comput. Molec. Sci., 2018 8(1)1-6
     doi.org/10.1002/wcms.1327
  3. Neese,F.; Wennmohs,F.; Becker,U.; Riplinger,C.
     The ORCA quantum chemistry program package
     J. Chem. Phys., 2020 152 Art. No. L224108
     doi.org/10.1063/5.0004608

List of optional additional citations

  1. Neese,F.
     Approximate second-order SCF convergence for spin unrestricted wavefunctions
     Chem. Phys. Lett., 2000 325(1-3)93-98
     doi.org/10.1016/s0009-2614(00)00662-x

Timings for individual modules:

Sum of individual times          ...     1182.413 sec (=  19.707 min)
Startup calculation              ...       17.933 sec (=   0.299 min)   1.5 %
SCF iterations                   ...      807.797 sec (=  13.463 min)  68.3 %
Property calculations            ...        0.110 sec (=   0.002 min)   0.0 %
SCF Gradient evaluation          ...      356.451 sec (=   5.941 min)  30.1 %
Geometry relaxation              ...        0.122 sec (=   0.002 min)   0.0 %
                             ****ORCA TERMINATED NORMALLY****
TOTAL RUN TIME: 0 days 0 hours 19 minutes 43 seconds 712 msec
