
                                 *****************
                                 * O   R   C   A *
                                 *****************

                                            #,                                       
                                            ###                                      
                                            ####                                     
                                            #####                                    
                                            ######                                   
                                           ########,                                 
                                     ,,################,,,,,                         
                               ,,#################################,,                 
                          ,,##########################################,,             
                       ,#########################################, ''#####,          
                    ,#############################################,,   '####,        
                  ,##################################################,,,,####,       
                ,###########''''           ''''###############################       
              ,#####''   ,,,,##########,,,,          '''####'''          '####       
            ,##' ,,,,###########################,,,                        '##       
           ' ,,###''''                  '''############,,,                           
         ,,##''                                '''############,,,,        ,,,,,,###''
      ,#''                                            '''#######################'''  
     '                                                          ''''####''''         
             ,#######,   #######,   ,#######,      ##                                
            ,#'     '#,  ##    ##  ,#'     '#,    #''#        ,####,   ,####,        
            ##       ##  ##   ,#'  ##            #'  '#       #'       #'  '#        
            ##       ##  #######   ##           ,######,      #####,   #    #        
            '#,     ,#'  ##    ##  '#,     ,#' ,#      #,     #,   #   #,  ,#        
             '#######'   ##     ##  '#######'  #'      '#     '####' # '####'        



                #########################################################
                #                        -***-                          #
                #          Department of theory and spectroscopy        #
                #                                                       #
                #                      Frank Neese                      #
                #                                                       #
                #     Directorship, Architecture, Infrastructure        #
                #                    SHARK, DRIVERS                     #
                #        Core code/Algorithms in most modules           #
                #                                                       #
                #        Max Planck Institute fuer Kohlenforschung      #
                #                Kaiser Wilhelm Platz 1                 #
                #                 D-45470 Muelheim/Ruhr                 #
                #                      Germany                          #
                #                                                       #
                #                  All rights reserved                  #
                #                        -***-                          #
                #########################################################


                         Program Version 6.0.0  -   RELEASE   -


 With contributions from (in alphabetic order):
   Daniel Aravena         : Magnetic Suceptibility
   Michael Atanasov       : Ab Initio Ligand Field Theory (pilot matlab implementation)
   Alexander A. Auer      : GIAO ZORA, VPT2 properties, NMR spectrum
   Ute Becker             : All parallelization in ORCA, NUMFREQ, NUMCALC
   Giovanni Bistoni       : ED, misc. LED, open-shell LED, HFLD
   Martin Brehm           : Molecular dynamics
   Dmytro Bykov           : pre 5.0 version of the SCF Hessian
   Marcos Casanova-Páez   : Triplet and SCS-CIS(D). UHF-(DLPNO)-IP/EA/STEOM-CCSD. UHF-CVS-IP/STEOM-CCSD
   Vijay G. Chilkuri      : MRCI spin determinant printing, contributions to CSF-ICE
   Pauline Colinet        : FMM embedding
   Dipayan Datta          : RHF DLPNO-CCSD density
   Achintya Kumar Dutta   : EOM-CC, STEOM-CC
   Nicolas Foglia         : Exact transition moments, OPA infrastructure, MCD improvements
   Dmitry Ganyushin       : Spin-Orbit,Spin-Spin,Magnetic field MRCI
   Miquel Garcia          : C-PCM and meta-GGA Hessian, CCSD/C-PCM, Gaussian charge scheme
   Tiago L. C. Gouveia    : GS-ROHF, GS-ROCIS
   Yang Guo               : DLPNO-NEVPT2, F12-NEVPT2, CIM, IAO-localization
   Andreas Hansen         : Spin unrestricted coupled pair/coupled cluster methods
   Ingolf Harden          : AUTO-CI MPn and infrastructure 
   Benjamin Helmich-Paris : MC-RPA, TRAH-(SCF,CASSCF), AVAS, COSX integrals, SCF dyn. polar.
   Lee Huntington         : MR-EOM, pCC
   Robert Izsak           : Overlap fitted RIJCOSX, COSX-SCS-MP3, EOM
   Riya Kayal             : Wick's Theorem for AUTO-CI, AUTO-CI UHF-CCSDT
   Emily Kempfer          : AUTO-CI, RHF CISDT and CCSDT
   Christian Kollmar      : KDIIS, OOCD, Brueckner-CCSD(T), CCSD density, CASPT2, CASPT2-K, improved NEVPT2
   Axel Koslowski         : Symmetry handling
   Simone Kossmann        : Meta GGA functionals, TD-DFT gradient, OOMP2, (MP2 Hessian; deprecated post 5.0)
   Lucas Lang             : DCDCAS
   Marvin Lechner         : AUTO-CI (C++ implementation), FIC-MRCC
   Spencer Leger          : CASSCF response
   Dagmar Lenk            : GEPOL surface, SMD, ORCA-2-JSON
   Dimitrios Liakos       : Extrapolation schemes; Compound Job, initial MDCI parallelization
   Dimitrios Manganas     : Further ROCIS development; embedding schemes. LFT, Crystal Embedding
   Dimitrios Pantazis     : SARC Basis sets
   Anastasios Papadopoulos: AUTO-CI, single reference methods and gradients
   Taras Petrenko         : pre 6.0 DFT Hessian and TD-DFT gradient, (ASA, deprecated), ECA, 1-Electron XAS/XES, NRVS
   Peter Pinski           : DLPNO-MP2, DLPNO-MP2 Gradient
   Christoph Reimann      : Effective Core Potentials
   Marius Retegan         : Local ZFS, SOC
   Christoph Riplinger    : Optimizer, TS searches, QM/MM, DLPNO-CCSD(T), (RO)-DLPNO pert. Triples
   Michael Roemelt        : Original ROCIS implementation
   Masaaki Saitow         : Open-shell DLPNO-CCSD energy and density
   Barbara Sandhoefer     : DKH picture change effects
   Kantharuban Sivalingam : CASSCF convergence/infrastructure, NEVPT2 and variants, FIC-MRCI
   Bernardo de Souza      : ESD, SOC TD-DFT
   Georgi Stoychev        : AutoAux, RI-MP2 NMR, DLPNO-MP2 response, X2C
   Van Anh Tran           : RI-MP2 g-tensors
   Willem Van den Heuvel  : Paramagnetic NMR
   Zikuan Wang            : NOTCH, Electric field optimization 
   Frank Wennmohs         : Technical directorship and infrastructure
   Hang Xu                : AUTO-CI-Response properties 


 We gratefully acknowledge several colleagues who have allowed us to
 interface, adapt or use parts of their codes:
   Stefan Grimme, W. Hujo, H. Kruse, P. Pracht,  : VdW corrections, initial TS optimization,
                  C. Bannwarth, S. Ehlert,         DFT functionals, gCP, sTDA/sTD-DF
                  L. Wittmann, M. Mueller
   Ed Valeev, F. Pavosevic, A. Kumar             : LibInt (2-el integral package), F12 methods
   Garnet Chan, S. Sharma, J. Yang, R. Olivares  : DMRG
   Ulf Ekstrom                                   : XCFun DFT Library
   Mihaly Kallay                                 : mrcc  (arbitrary order and MRCC methods)
   Frank Weinhold                                : gennbo (NPA and NBO analysis)
   Simon Mueller                                 : openCOSMO-RS
   Christopher J. Cramer and Donald G. Truhlar   : smd solvation model
   Lars Goerigk                                  : TD-DFT with DH, B97 family of functionals
   V. Asgeirsson, H. Jonsson                     : NEB implementation
   FAccTs GmbH                                   : IRC, NEB, NEB-TS, DLPNO-Multilevel, CI-OPT
                                                   MM, QMMM, 2- and 3-layer-ONIOM, Crystal-QMMM,
                                                   LR-CPCM, SF, NACMEs, symmetry and pop. for TD-DFT,
                                                   nearIR, NL-DFT gradient (VV10), updates on ESD,
                                                   ML-optimized integration grids, MBIS, APM,
                                                   GOAT, DOCKER, SOLVATOR, interface openCOSMO-RS
   S Lehtola, MJT Oliveira, MAL Marques          : LibXC Library
   Liviu Ungur et al                             : ANISO software


 Your calculation uses the libint2 library for the computation of 2-el integrals
 For citations please refer to: http://libint.valeyev.net

 Your ORCA version has been built with support for libXC version: 6.2.2
 For citations please refer to: https://libxc.gitlab.io

 This ORCA versions uses:
   CBLAS   interface :  Fast vector & matrix operations
   LAPACKE interface :  Fast linear algebra routines
   Shared memory     :  Shared parallel matrices


Warning: RI is on but no J-basis has been assigned. Assigning Def2/J (nothing to worry about!)
================================================================================

----- Orbital basis set information -----
Your calculation utilizes the basis: 6-311+G**
   H, Li - Ne  : R. Krishnan, J. S. Binkley, R. Seeger and J. A. Pople, J. Chem. Phys. 72, 650 (1980).
   Na - Ar     : A. D. McLean and G. S. Chandler J. Chem. Phys. 72, 5639, (1980).
   K  - Ca     : J.-P. Blaudeau, M. P. McGrath, L. A. Curtiss and L. Radom, J. Chem. Phys. 107, 5016 (1997).
   Ga - Kr     : L. A. Curtiss, M. P. McGrath, J.-P. Blandeau, N. E. Davis, R. C. Binning and L. Radom, J. Chem. Phys. 103, 6104 (1995).
   Pol./Diff.
   H, Li - Cl  : T. Clark, J. Chandrasekhar and P. v. R. Schleyer, J. Comp. Chem. 4, 294 (1983).
   H - Ne      : M. J. Frisch, J. A. Pople and J. S. Binkley, J. Chem. Phys. 80, 3265 (1984).

----- AuxJ basis set information -----
Your calculation utilizes the auxiliary basis: def2/J
   F. Weigend, Phys. Chem. Chem. Phys. 8, 1057 (2006).

================================================================================
                                        WARNINGS
                       Please study these warnings very carefully!
================================================================================


WARNING: Geometry Optimization
  ===> : Switching off AutoStart
         For restart on a previous wavefunction, please use MOREAD

================================================================================
                                       INPUT FILE
================================================================================
NAME = Ibuprofen\Ibuprofen_B3LYP_6-311+G\Ibuprofen_B3LYP_6-311+G.orcainp
|  1> # ORCA input file
|  2> # 
|  3> !B3LYP 6-311+G** Opt CPCM(WATER)
|  4> * xyz 0 1
|  5>    C        2.84251         1.01411        -0.69096
|  6>    C        2.43769        -0.00906         0.37461
|  7>    C        0.91575        -0.01278         0.53493
|  8>    C        2.94670        -1.42385         0.03470
|  9>    C        4.45251        -1.51309        -0.08791
| 10>    C        5.27723        -1.21555         1.00286
| 11>    C        6.66758        -1.27499         0.88204
| 12>    C        7.26810        -1.65638        -0.32751
| 13>    C        6.43770        -1.95835        -1.41751
| 14>    C        5.04670        -1.88539        -1.29902
| 15>    C        8.78387        -1.78842        -0.41169
| 16>    C        9.16418        -3.23508        -0.74382
| 17>    C        9.51321        -0.83979        -1.36214
| 18>    O        8.78146         0.15695        -1.90506
| 19>    O       10.71031        -0.94017        -1.60515
| 20>    H        2.47037         2.01046        -0.43077
| 21>    H        2.43869         0.74424        -1.67252
| 22>    H        3.93059         1.08959        -0.77972
| 23>    H        2.86857         0.31218         1.33176
| 24>    H        0.41895        -0.36301        -0.37626
| 25>    H        0.54619         0.99434         0.75501
| 26>    H        0.61306        -0.66604         1.36024
| 27>    H        2.47811        -1.76575        -0.89972
| 28>    H        2.62532        -2.13383         0.80693
| 29>    H        4.84079        -0.93717         1.96023
| 30>    H        7.27498        -1.03913         1.75499
| 31>    H        6.86200        -2.26456        -2.37291
| 32>    H        4.42920        -2.12815        -2.16163
| 33>    H        9.19524        -1.55445         0.58086
| 34>    H        8.80273        -3.53129        -1.73562
| 35>    H        8.74197        -3.93027        -0.01021
| 36>    H       10.25123        -3.36973        -0.74622
| 37>    H        7.84710         0.18033        -1.63398
| 38> *
| 39> 
| 40>                          ****END OF INPUT****
================================================================================

                       *****************************
                       * Geometry Optimization Run *
                       *****************************

Geometry optimization settings:
Update method            Update   .... BFGS
Choice of coordinates    CoordSys .... (2022) Redundant Internals
Initial Hessian          InHess   .... Almloef's Model
Max. no of cycles        MaxIter  .... 99

Convergence Tolerances:
Energy Change            TolE     ....  5.0000e-06 Eh
Max. Gradient            TolMAXG  ....  3.0000e-04 Eh/bohr
RMS Gradient             TolRMSG  ....  1.0000e-04 Eh/bohr
Max. Displacement        TolMAXD  ....  4.0000e-03 bohr
RMS Displacement         TolRMSD  ....  2.0000e-03 bohr
Strict Convergence                .... False

------------------------------------------------------------------------------
                        ORCA OPTIMIZATION COORDINATE SETUP
------------------------------------------------------------------------------

The optimization will be done in redundant internal coordinates (2022)
Making redundant internal coordinates   ...  (2022 redundants) done
Evaluating the initial hessian          ...  (Almloef) done
Evaluating the coordinates              ...  done
Calculating the B-matrix                .... done
Calculating the G-matrix                .... done
Diagonalizing the G-matrix              .... done
Small eigenvalue found = 1.016e-02
Small eigenvalue found = 1.828e-02
Small eigenvalue found = 2.477e-02
Small eigenvalue found = 2.537e-02
The first mode is                       ....   64
The number of degrees of freedom        ....   93

    -----------------------------------------------------------------
                    Redundant Internal Coordinates


    -----------------------------------------------------------------
         Definition                    Initial Value    Approx d2E/dq
    -----------------------------------------------------------------
      1. B(C   1,C   0)                  1.5317         0.371209   
      2. B(C   2,C   1)                  1.5304         0.373074   
      3. B(C   3,C   1)                  1.5415         0.358105   
      4. B(C   4,C   3)                  1.5134         0.397026   
      5. B(C   5,C   4)                  1.3995         0.603469   
      6. B(C   6,C   5)                  1.3969         0.609259   
      7. B(C   7,C   6)                  1.4032         0.595125   
      8. B(C   8,C   7)                  1.4032         0.595315   
      9. B(C   9,C   8)                  1.3979         0.606829   
     10. B(C   9,C   4)                  1.3994         0.603481   
     11. B(C  10,C   7)                  1.5238         0.382129   
     12. B(C  11,C  10)                  1.5322         0.370508   
     13. B(C  12,C  10)                  1.5281         0.376146   
     14. B(O  13,C  12)                  1.3504         0.647109   
     15. B(O  14,C  12)                  1.2256         1.023555   
     16. B(H  15,C   0)                  1.0949         0.353620   
     17. B(H  16,C   0)                  1.0952         0.353347   
     18. B(H  17,C   0)                  1.0943         0.354456   
     19. B(H  18,C   1)                  1.0977         0.350031   
     20. B(H  19,C   2)                  1.0953         0.353123   
     21. B(H  20,C   2)                  1.0951         0.353383   
     22. B(H  21,C   2)                  1.0952         0.353261   
     23. B(H  22,C   3)                  1.0998         0.347336   
     24. B(H  23,C   3)                  1.0971         0.350789   
     25. B(H  24,C   5)                  1.0884         0.362273   
     26. B(H  25,C   6)                  1.0893         0.361008   
     27. B(H  26,C   8)                  1.0893         0.361021   
     28. B(H  27,C   9)                  1.0883         0.362394   
     29. B(H  28,C  10)                  1.0996         0.347620   
     30. B(H  29,C  11)                  1.0964         0.351755   
     31. B(H  30,C  11)                  1.0953         0.353126   
     32. B(H  31,C  11)                  1.0954         0.353078   
     33. B(H  32,H  17)                  4.1104         0.000001   
     34. B(H  32,O  13)                  0.9732         0.495399   
     35. A(C   1,C   0,H  15)          110.6526         0.323017   
     36. A(H  15,C   0,H  17)          107.1245         0.289294   
     37. A(C   1,C   0,H  17)          111.4253         0.323142   
     38. A(H  16,C   0,H  17)          108.1157         0.289259   
     39. A(C   1,C   0,H  16)          111.1892         0.322976   
     40. A(H  15,C   0,H  16)          108.1733         0.289152   
     41. A(C   0,C   1,C   3)          111.8640         0.360347   
     42. A(C   2,C   1,H  18)          107.4413         0.322742   
     43. A(C   2,C   1,C   3)          110.4416         0.360655   
     44. A(C   3,C   1,H  18)          109.3441         0.320586   
     45. A(C   0,C   1,H  18)          107.9002         0.322477   
     46. A(C   0,C   1,C   2)          109.7146         0.362874   
     47. A(C   1,C   2,H  19)          111.3889         0.323208   
     48. A(H  20,C   2,H  21)          107.6878         0.289111   
     49. A(C   1,C   2,H  20)          110.7578         0.323247   
     50. A(H  19,C   2,H  21)          108.1076         0.289077   
     51. A(C   1,C   2,H  21)          110.8084         0.323229   
     52. A(H  19,C   2,H  20)          107.9492         0.289093   
     53. A(C   1,C   3,H  23)          109.9986         0.320699   
     54. A(C   4,C   3,H  22)          109.6792         0.325643   
     55. A(H  22,C   3,H  23)          105.7853         0.288014   
     56. A(C   1,C   3,C   4)          113.6108         0.364508   
     57. A(C   1,C   3,H  22)          109.3884         0.320181   
     58. A(C   4,C   3,H  23)          108.0784         0.326174   
     59. A(C   5,C   4,C   9)          118.7426         0.429872   
     60. A(C   3,C   4,C   5)          120.7083         0.399051   
     61. A(C   3,C   4,C   9)          120.5474         0.399052   
     62. A(C   4,C   5,C   6)          120.6710         0.430608   
     63. A(C   6,C   5,H  24)          119.0850         0.352225   
     64. A(C   4,C   5,H  24)          120.2436         0.351657   
     65. A(C   5,C   6,C   7)          120.8024         0.429533   
     66. A(C   7,C   6,H  25)          120.7293         0.350623   
     67. A(C   5,C   6,H  25)          118.4553         0.352017   
     68. A(C   8,C   7,C  10)          121.8107         0.395434   
     69. A(C   6,C   7,C  10)          119.7920         0.395412   
     70. A(C   6,C   7,C   8)          118.3476         0.427753   
     71. A(C   9,C   8,H  26)          118.4631         0.351781   
     72. A(C   7,C   8,C   9)          120.7834         0.429250   
     73. A(C   7,C   8,H  26)          120.7509         0.350645   
     74. A(C   4,C   9,C   8)          120.6450         0.430301   
     75. A(C   4,C   9,H  27)          120.2912         0.351678   
     76. A(C   8,C   9,H  27)          119.0629         0.352007   
     77. A(C   7,C  10,C  11)          109.9180         0.364247   
     78. A(C  12,C  10,H  28)          104.5235         0.322810   
     79. A(C  11,C  10,H  28)          107.6797         0.322013   
     80. A(C   7,C  10,H  28)          107.6876         0.323647   
     81. A(C  11,C  10,C  12)          109.4402         0.363265   
     82. A(C   7,C  10,C  12)          117.0853         0.365189   
     83. A(H  30,C  11,H  31)          107.8176         0.289054   
     84. A(H  29,C  11,H  31)          106.9766         0.288878   
     85. A(C  10,C  11,H  31)          111.2758         0.322836   
     86. A(H  29,C  11,H  30)          107.8981         0.288884   
     87. A(C  10,C  11,H  30)          111.0011         0.322843   
     88. A(C  10,C  11,H  29)          111.6747         0.322637   
     89. A(O  13,C  12,O  14)          120.6625         0.472893   
     90. A(C  10,C  12,O  14)          122.5912         0.431349   
     91. A(C  10,C  12,O  13)          116.7192         0.397601   
     92. A(C  12,O  13,H  32)          115.2135         0.369761   
     93. D(C   3,C   1,C   0,H  15)    179.9333         0.011011   
     94. D(C   2,C   1,C   0,H  15)     57.0081         0.011011   
     95. D(C   3,C   1,C   0,H  17)    -60.9928         0.011011   
     96. D(C   3,C   1,C   0,H  16)     59.6949         0.011011   
     97. D(C   2,C   1,C   0,H  16)    -63.2302         0.011011   
     98. D(C   2,C   1,C   0,H  17)    176.0820         0.011011   
     99. D(H  19,C   2,C   1,C   3)    -58.6057         0.011115   
    100. D(H  19,C   2,C   1,C   0)     65.1560         0.011115   
    101. D(H  20,C   2,C   1,H  18)     62.0502         0.011115   
    102. D(H  20,C   2,C   1,C   3)   -178.7644         0.011115   
    103. D(H  20,C   2,C   1,C   0)    -55.0027         0.011115   
    104. D(H  19,C   2,C   1,H  18)   -177.7911         0.011115   
    105. D(C   4,C   3,C   1,H  18)    -59.7670         0.010296   
    106. D(C   4,C   3,C   1,C   0)     59.6963         0.010296   
    107. D(C   4,C   3,C   1,C   2)   -177.7921         0.010296   
    108. D(H  22,C   3,C   1,H  18)    177.3144         0.010296   
    109. D(H  22,C   3,C   1,C   2)     59.2893         0.010296   
    110. D(H  22,C   3,C   1,C   0)    -63.2223         0.010296   
    111. D(C   9,C   4,C   3,C   1)   -118.0954         0.011706   
    112. D(C   5,C   4,C   3,H  23)    -60.9507         0.011706   
    113. D(C   5,C   4,C   3,H  22)   -175.8268         0.011706   
    114. D(C   9,C   4,C   3,H  22)      4.6633         0.011706   
    115. D(C   5,C   4,C   3,C   1)     61.4145         0.011706   
    116. D(H  24,C   5,C   4,C   9)   -179.1235         0.025121   
    117. D(C   6,C   5,C   4,C   9)      0.6709         0.025121   
    118. D(H  24,C   5,C   4,C   3)      1.3579         0.025121   
    119. D(C   6,C   5,C   4,C   3)   -178.8477         0.025121   
    120. D(H  25,C   6,C   5,H  24)     -0.0190         0.025633   
    121. D(H  25,C   6,C   5,C   4)   -179.8158         0.025633   
    122. D(C   7,C   6,C   5,C   4)     -1.1136         0.025633   
    123. D(C   7,C   6,C   5,H  24)    178.6831         0.025633   
    124. D(C  10,C   7,C   6,H  25)      2.0638         0.024395   
    125. D(C  10,C   7,C   6,C   5)   -176.6087         0.024395   
    126. D(C   8,C   7,C   6,H  25)    179.5470         0.024395   
    127. D(C   8,C   7,C   6,C   5)      0.8745         0.024395   
    128. D(H  26,C   8,C   7,C  10)     -2.1906         0.024411   
    129. D(H  26,C   8,C   7,C   6)   -179.6203         0.024411   
    130. D(C   9,C   8,C   7,C  10)    177.2047         0.024411   
    131. D(C   9,C   8,C   7,C   6)     -0.2251         0.024411   
    132. D(H  27,C   9,C   8,C   7)   -179.8436         0.025417   
    133. D(C   4,C   9,C   8,H  26)    179.2119         0.025417   
    134. D(C   4,C   9,C   8,C   7)     -0.1970         0.025417   
    135. D(H  27,C   9,C   4,C   5)    179.6203         0.025122   
    136. D(H  27,C   9,C   4,C   3)     -0.8604         0.025122   
    137. D(C   8,C   9,C   4,C   5)     -0.0220         0.025122   
    138. D(H  27,C   9,C   8,H  26)     -0.4347         0.025417   
    139. D(C   8,C   9,C   4,C   3)    179.4974         0.025122   
    140. D(H  28,C  10,C   7,C   6)      0.7505         0.010889   
    141. D(C  12,C  10,C   7,C   8)     66.0519         0.010889   
    142. D(C  12,C  10,C   7,C   6)   -116.5547         0.010889   
    143. D(C  11,C  10,C   7,C   8)    -59.6037         0.010889   
    144. D(C  11,C  10,C   7,C   6)    117.7897         0.010889   
    145. D(H  30,C  11,C  10,H  28)     60.7848         0.010972   
    146. D(H  30,C  11,C  10,C  12)    173.8403         0.010972   
    147. D(H  30,C  11,C  10,C   7)    -56.2593         0.010972   
    148. D(H  29,C  11,C  10,H  28)   -178.7637         0.010972   
    149. D(H  29,C  11,C  10,C  12)    -65.7082         0.010972   
    150. D(H  29,C  11,C  10,C   7)     64.1922         0.010972   
    151. D(O  14,C  12,C  10,C  11)    -46.9849         0.010571   
    152. D(O  14,C  12,C  10,C   7)   -172.8776         0.010571   
    153. D(O  13,C  12,C  10,H  28)   -110.0046         0.010571   
    154. D(O  13,C  12,C  10,C  11)    134.9005         0.010571   
    155. D(O  13,C  12,C  10,C   7)      9.0077         0.010571   
    156. D(H  32,O  13,C  12,O  14)   -177.9128         0.030925   
    157. D(H  32,O  13,C  12,C  10)      0.2405         0.030925   
    -----------------------------------------------------------------

Number of atoms                         .... 33
Number of degrees of freedom            .... 157


         *************************************************************
         *                GEOMETRY OPTIMIZATION CYCLE   1            *
         *************************************************************
---------------------------------
CARTESIAN COORDINATES (ANGSTROEM)
---------------------------------
  C      2.842510    1.014110   -0.690960
  C      2.437690   -0.009060    0.374610
  C      0.915750   -0.012780    0.534930
  C      2.946700   -1.423850    0.034700
  C      4.452510   -1.513090   -0.087910
  C      5.277230   -1.215550    1.002860
  C      6.667580   -1.274990    0.882040
  C      7.268100   -1.656380   -0.327510
  C      6.437700   -1.958350   -1.417510
  C      5.046700   -1.885390   -1.299020
  C      8.783870   -1.788420   -0.411690
  C      9.164180   -3.235080   -0.743820
  C      9.513210   -0.839790   -1.362140
  O      8.781460    0.156950   -1.905060
  O     10.710310   -0.940170   -1.605150
  H      2.470370    2.010460   -0.430770
  H      2.438690    0.744240   -1.672520
  H      3.930590    1.089590   -0.779720
  H      2.868570    0.312180    1.331760
  H      0.418950   -0.363010   -0.376260
  H      0.546190    0.994340    0.755010
  H      0.613060   -0.666040    1.360240
  H      2.478110   -1.765750   -0.899720
  H      2.625320   -2.133830    0.806930
  H      4.840790   -0.937170    1.960230
  H      7.274980   -1.039130    1.754990
  H      6.862000   -2.264560   -2.372910
  H      4.429200   -2.128150   -2.161630
  H      9.195240   -1.554450    0.580860
  H      8.802730   -3.531290   -1.735620
  H      8.741970   -3.930270   -0.010210
  H     10.251230   -3.369730   -0.746220
  H      7.847100    0.180330   -1.633980

----------------------------
CARTESIAN COORDINATES (A.U.)
----------------------------
  NO LB      ZA    FRAG     MASS         X           Y           Z
   0 C     6.0000    0    12.011    5.371565    1.916390   -1.305725
   1 C     6.0000    0    12.011    4.606566   -0.017121    0.707910
   2 C     6.0000    0    12.011    1.730517   -0.024151    1.010871
   3 C     6.0000    0    12.011    5.568456   -2.690687    0.065573
   4 C     6.0000    0    12.011    8.414025   -2.859326   -0.166126
   5 C     6.0000    0    12.011    9.972519   -2.297057    1.895131
   6 C     6.0000    0    12.011   12.599900   -2.409382    1.666814
   7 C     6.0000    0    12.011   13.734719   -3.130105   -0.618904
   8 C     6.0000    0    12.011   12.165490   -3.700745   -2.678706
   9 C     6.0000    0    12.011    9.536881   -3.562871   -2.454792
  10 C     6.0000    0    12.011   16.599109   -3.379624   -0.777981
  11 C     6.0000    0    12.011   17.317790   -6.113415   -1.405616
  12 C     6.0000    0    12.011   17.977362   -1.586973   -2.574072
  13 O     8.0000    0    15.999   16.594554    0.296593   -3.600042
  14 O     8.0000    0    15.999   20.239553   -1.776664   -3.033294
  15 H     1.0000    0     1.008    4.668323    3.799219   -0.814037
  16 H     1.0000    0     1.008    4.608456    1.406410   -3.160605
  17 H     1.0000    0     1.008    7.427739    2.059027   -1.473457
  18 H     1.0000    0     1.008    5.420812    0.589935    2.516662
  19 H     1.0000    0     1.008    0.791701   -0.685989   -0.711028
  20 H     1.0000    0     1.008    1.032150    1.879030    1.426762
  21 H     1.0000    0     1.008    1.158516   -1.258633    2.570481
  22 H     1.0000    0     1.008    4.682949   -3.336784   -1.700224
  23 H     1.0000    0     1.008    4.961136   -4.032354    1.524877
  24 H     1.0000    0     1.008    9.147767   -1.770995    3.704298
  25 H     1.0000    0     1.008   13.747720   -1.963671    3.316450
  26 H     1.0000    0     1.008   12.967301   -4.279398   -4.484150
  27 H     1.0000    0     1.008    8.369975   -4.021621   -4.084889
  28 H     1.0000    0     1.008   17.376485   -2.937485    1.097666
  29 H     1.0000    0     1.008   16.634749   -6.673171   -3.279846
  30 H     1.0000    0     1.008   16.519929   -7.427134   -0.019294
  31 H     1.0000    0     1.008   19.372017   -6.367867   -1.410151
  32 H     1.0000    0     1.008   14.828870    0.340774   -3.087775

--------------------------------
INTERNAL COORDINATES (ANGSTROEM)
--------------------------------
 C      0   0   0     0.000000000000     0.00000000     0.00000000
 C      1   0   0     1.531729579985     0.00000000     0.00000000
 C      2   1   0     1.530365219286   109.71462294     0.00000000
 C      2   1   3     1.541512482045   111.86401706   122.92518346
 C      4   2   1     1.513426822083   113.61082143    59.69630834
 C      5   4   2     1.399454294681   120.70831907    61.41445029
 C      6   5   4     1.396854934666   120.67102574   181.15234846
 C      7   6   5     1.403244029027   120.80241279   358.88635262
 C      8   7   6     1.403157168994   118.34759068     0.87448519
 C      9   8   7     1.397942789137   120.78338492   359.77494972
 C      8   7   6     1.523837106419   119.79202825   183.39127563
 C     11   8   7     1.532243841104   109.91799153   117.78969411
 C     11   8   7     1.528133147013   117.08534531   243.44529816
 O     13  11   8     1.350448376096   116.71918838     9.00774310
 O     13  11   8     1.225633882732   122.59119007   187.12239043
 H      1   2   3     1.094943075324   110.65261736    57.00811835
 H      1   2   3     1.095153159563   111.18923518   296.76975473
 H      1   2   3     1.094300532029   111.42529722   176.08204879
 H      2   1   3     1.097719834247   107.90021058   243.23514575
 H      3   2   1     1.095325754741   111.38885930    65.15597338
 H      3   2   1     1.095125789305   110.75780569   304.99727656
 H      3   2   1     1.095219822593   110.80840791   185.54919722
 H      4   2   1     1.099824047064   109.38835291   296.77771846
 H      4   2   1     1.097130747769   109.99855324   180.99406380
 H      6   5   4     1.088362354595   120.24364158     1.35791652
 H      7   6   5     1.089314647886   118.45534345   180.18423661
 H      9   8   7     1.089304463454   120.75086099   180.37967587
 H     10   9   8     1.088271418213   119.06285400   180.15643017
 H     11   8   7     1.099601173290   107.68759136     0.75054335
 H     12  11   8     1.096382098814   111.67474472    64.19221545
 H     12  11   8     1.095323720322   111.00105965   303.74073201
 H     12  11   8     1.095360253524   111.27581512   183.66021351
 H     14  13  11     0.973169872324   115.21354677     0.24050772

---------------------------
INTERNAL COORDINATES (A.U.)
---------------------------
 C      0   0   0     0.000000000000     0.00000000     0.00000000
 C      1   0   0     2.894549417397     0.00000000     0.00000000
 C      2   1   0     2.891971149329   109.71462294     0.00000000
 C      2   1   3     2.913036423086   111.86401706   122.92518346
 C      4   2   1     2.859962217467   113.61082143    59.69630834
 C      5   4   2     2.644585353886   120.70831907    61.41445029
 C      6   5   4     2.639673275335   120.67102574   181.15234846
 C      7   6   5     2.651746913921   120.80241279   358.88635262
 C      8   7   6     2.651582772247   118.34759068     0.87448519
 C      9   8   7     2.641729022359   120.78338492   359.77494972
 C      8   7   6     2.879634803839   119.79202825   183.39127563
 C     11   8   7     2.895521230073   109.91799153   117.78969411
 C     11   8   7     2.887753144022   117.08534531   243.44529816
 O     13  11   8     2.551977588820   116.71918838     9.00774310
 O     13  11   8     2.316112378817   122.59119007   187.12239043
 H      1   2   3     2.069142544596   110.65261736    57.00811835
 H      1   2   3     2.069539546272   111.18923518   296.76975473
 H      1   2   3     2.067928313740   111.42529722   176.08204879
 H      2   1   3     2.074389858501   107.90021058   243.23514575
 H      3   2   1     2.069865703892   111.38885930    65.15597338
 H      3   2   1     2.069487823980   110.75780569   304.99727656
 H      3   2   1     2.069665521142   110.80840791   185.54919722
 H      4   2   1     2.078366244452   109.38835291   296.77771846
 H      4   2   1     2.073276646388   109.99855324   180.99406380
 H      6   5   4     2.056706784655   120.24364158     1.35791652
 H      7   6   5     2.058506358174   118.45534345   180.18423661
 H      9   8   7     2.058487112385   120.75086099   180.37967587
 H     10   9   8     2.056534939797   119.06285400   180.15643017
 H     11   8   7     2.077945074056   107.68759136     0.75054335
 H     12  11   8     2.071861904892   111.67474472    64.19221545
 H     12  11   8     2.069861859396   111.00105965   303.74073201
 H     12  11   8     2.069930897143   111.27581512   183.66021351
 H     14  13  11     1.839024540476   115.21354677     0.24050772

---------------------
BASIS SET INFORMATION
---------------------
There are 3 groups of distinct atoms

 Group   1 Type C   : 12s6p1d contracted to 5s4p1d pattern {63111/3111/1}
 Group   2 Type O   : 12s6p1d contracted to 5s4p1d pattern {63111/3111/1}
 Group   3 Type H   : 5s1p contracted to 3s1p pattern {311/1}

Atom   0C    basis set group =>   1
Atom   1C    basis set group =>   1
Atom   2C    basis set group =>   1
Atom   3C    basis set group =>   1
Atom   4C    basis set group =>   1
Atom   5C    basis set group =>   1
Atom   6C    basis set group =>   1
Atom   7C    basis set group =>   1
Atom   8C    basis set group =>   1
Atom   9C    basis set group =>   1
Atom  10C    basis set group =>   1
Atom  11C    basis set group =>   1
Atom  12C    basis set group =>   1
Atom  13O    basis set group =>   2
Atom  14O    basis set group =>   2
Atom  15H    basis set group =>   3
Atom  16H    basis set group =>   3
Atom  17H    basis set group =>   3
Atom  18H    basis set group =>   3
Atom  19H    basis set group =>   3
Atom  20H    basis set group =>   3
Atom  21H    basis set group =>   3
Atom  22H    basis set group =>   3
Atom  23H    basis set group =>   3
Atom  24H    basis set group =>   3
Atom  25H    basis set group =>   3
Atom  26H    basis set group =>   3
Atom  27H    basis set group =>   3
Atom  28H    basis set group =>   3
Atom  29H    basis set group =>   3
Atom  30H    basis set group =>   3
Atom  31H    basis set group =>   3
Atom  32H    basis set group =>   3
---------------------------------
AUXILIARY/J BASIS SET INFORMATION
---------------------------------
There are 3 groups of distinct atoms

 Group   1 Type C   : 12s5p4d2f1g contracted to 6s4p3d1f1g pattern {711111/2111/211/2/1}
 Group   2 Type O   : 12s5p4d2f1g contracted to 6s4p3d1f1g pattern {711111/2111/211/2/1}
 Group   3 Type H   : 5s2p1d contracted to 3s1p1d pattern {311/2/1}

Atom   0C    basis set group =>   1
Atom   1C    basis set group =>   1
Atom   2C    basis set group =>   1
Atom   3C    basis set group =>   1
Atom   4C    basis set group =>   1
Atom   5C    basis set group =>   1
Atom   6C    basis set group =>   1
Atom   7C    basis set group =>   1
Atom   8C    basis set group =>   1
Atom   9C    basis set group =>   1
Atom  10C    basis set group =>   1
Atom  11C    basis set group =>   1
Atom  12C    basis set group =>   1
Atom  13O    basis set group =>   2
Atom  14O    basis set group =>   2
Atom  15H    basis set group =>   3
Atom  16H    basis set group =>   3
Atom  17H    basis set group =>   3
Atom  18H    basis set group =>   3
Atom  19H    basis set group =>   3
Atom  20H    basis set group =>   3
Atom  21H    basis set group =>   3
Atom  22H    basis set group =>   3
Atom  23H    basis set group =>   3
Atom  24H    basis set group =>   3
Atom  25H    basis set group =>   3
Atom  26H    basis set group =>   3
Atom  27H    basis set group =>   3
Atom  28H    basis set group =>   3
Atom  29H    basis set group =>   3
Atom  30H    basis set group =>   3
Atom  31H    basis set group =>   3
Atom  32H    basis set group =>   3
------------------------------------------------------------------------------
                             ORCA STARTUP CALCULATIONS
                           -- RI-GTO INTEGRALS CHOSEN --
------------------------------------------------------------------------------
------------------------------------------------------------------------------
                   ___                                                        
                  /   \      - P O W E R E D   B Y -                         
                 /     \                                                     
                 |  |  |   _    _      __       _____    __    __             
                 |  |  |  | |  | |    /  \     |  _  \  |  |  /  |          
                  \  \/   | |  | |   /    \    | | | |  |  | /  /          
                 / \  \   | |__| |  /  /\  \   | |_| |  |  |/  /          
                |  |  |   |  __  | /  /__\  \  |    /   |      \           
                |  |  |   | |  | | |   __   |  |    \   |  |\   \          
                \     /   | |  | | |  |  |  |  | |\  \  |  | \   \       
                 \___/    |_|  |_| |__|  |__|  |_| \__\ |__|  \__/        
                                                                              
                      - O R C A' S   B I G   F R I E N D -                    
                                      &                                       
                       - I N T E G R A L  F E E D E R -                       
                                                                              
 v1 FN, 2020, v2 2021, v3 2022-2024                                           
------------------------------------------------------------------------------


----------------------
SHARK INTEGRAL PACKAGE
----------------------

Number of atoms                             ...     33
Number of basis functions                   ...    438
Number of shells                            ...    222
Maximum angular momentum                    ...      2
Integral batch strategy                     ... SHARK/LIBINT Hybrid
RI-J (if used) integral strategy            ... SPLIT-RIJ (Revised 2003 algorithm where possible)
Printlevel                                  ...      1
Contraction scheme used                     ... SEGMENTED contraction
Prescreening option                         ... SCHWARTZ
   Thresh                                   ... 2.500e-11
   Tcut                                     ... 2.500e-12
   Tpresel                                  ... 2.500e-12 
Coulomb Range Separation                    ... NOT USED
Exchange Range Separation                   ... NOT USED
Multipole approximations                    ... NOT USED
Finite Nucleus Model                        ... NOT USED
CABS basis                                  ... NOT available
Auxiliary Coulomb fitting basis             ... AVAILABLE
   # of basis functions in Aux-J            ...    933
   # of shells in Aux-J                     ...    315
   Maximum angular momentum in Aux-J        ...      4
Auxiliary J/K fitting basis                 ... NOT available
Auxiliary Correlation fitting basis         ... NOT available
Auxiliary 'external' fitting basis          ... NOT available

Checking pre-screening integrals            ... done (  0.0 sec) Dimension = 222
Check shell pair data                       ... done (  0.0 sec)
Shell pair information
Shell pair cut-off parameter TPreSel        ...   2.5e-12
Total number of shell pairs                 ...     24753
Shell pairs after pre-screening             ...     19670
Total number of primitive shell pairs       ...     77790
Primitive shell pairs kept                  ...     42727
          la=0 lb=0:   6549 shell pairs
          la=1 lb=0:   8094 shell pairs
          la=1 lb=1:   2554 shell pairs
          la=2 lb=0:   1467 shell pairs
          la=2 lb=1:    915 shell pairs
          la=2 lb=2:     91 shell pairs

Calculating one electron integrals          ... done (  0.0 sec)
Calculating RI/J V-Matrix + Cholesky decomp.... done (  0.0 sec)
Calculating Nuclear repulsion               ... done (  0.0 sec) ENN=    968.504549123236 Eh

Diagonalization of the overlap matrix:
Smallest eigenvalue                        ... 8.032e-07
Time for diagonalization                   ...    0.011 sec
Threshold for overlap eigenvalues          ... 1.000e-07
Number of eigenvalues below threshold      ... 0

IMPORTANT:
Smallest eigenvalue of S below the DiffSThresh (1.000e-06) while
Thresh>1e-12 and/or TCut>1e-13! In order to avoid SCF convergence issues,
Thresh will be set to at least 1e-12 and TCut to at least 1e-13.
This can be turned off by adding %SCF DiffSThresh -1 END to the input.

Time for construction of square roots      ...    0.009 sec
Total time needed                          ...    0.021 sec

-------------------
DFT GRID GENERATION
-------------------

General Integration Accuracy     IntAcc      ... 4.388
Radial Grid Type                 RadialGrid  ... OptM3 with GC (2021)
Angular Grid (max. ang.)         AngularGrid ... 4 (Lebedev-302)
Angular grid pruning method      GridPruning ... 4 (adaptive)
Weight generation scheme         WeightScheme... mBecke (2022)
Basis function cutoff            BFCut       ... 1.0000e-11
Integration weight cutoff        WCut        ... 1.0000e-14
Partially contracted basis set               ... off
Rotationally invariant grid construction     ... off
Angular grids for H and He will be reduced by one unit
Diffuse basis detected: some atoms will have their outermost
                        angular grid increased by 1.

Total number of grid points                  ...   150507
Total number of batches                      ...     2366
Average number of points per batch           ...       63
Average number of grid points per atom       ...     4561

--------------------
COSX GRID GENERATION
--------------------

GRIDX 1
-------
General Integration Accuracy     IntAcc      ... 3.816
Radial Grid Type                 RadialGrid  ... OptM3 with GC (2021)
Angular Grid (max. ang.)         AngularGrid ... 1 (Lebedev-50)
Angular grid pruning method      GridPruning ... 4 (adaptive)
Weight generation scheme         WeightScheme... mBecke (2022)
Basis function cutoff            BFCut       ... 1.0000e-11
Integration weight cutoff        WCut        ... 1.0000e-14
Partially contracted basis set               ... on
Rotationally invariant grid construction     ... off
Angular grids for H and He will be reduced by one unit
Diffuse basis detected: some atoms will have their outermost
                        angular grid increased by 1.

Total number of grid points                  ...    19188
Total number of batches                      ...      168
Average number of points per batch           ...      114
Average number of grid points per atom       ...      581
UseSFitting                                  ... on

GRIDX 2
-------
General Integration Accuracy     IntAcc      ... 4.020
Radial Grid Type                 RadialGrid  ... OptM3 with GC (2021)
Angular Grid (max. ang.)         AngularGrid ... 2 (Lebedev-110)
Angular grid pruning method      GridPruning ... 4 (adaptive)
Weight generation scheme         WeightScheme... mBecke (2022)
Basis function cutoff            BFCut       ... 1.0000e-11
Integration weight cutoff        WCut        ... 1.0000e-14
Partially contracted basis set               ... on
Rotationally invariant grid construction     ... off
Angular grids for H and He will be reduced by one unit
Diffuse basis detected: some atoms will have their outermost
                        angular grid increased by 1.

Total number of grid points                  ...    43620
Total number of batches                      ...      358
Average number of points per batch           ...      121
Average number of grid points per atom       ...     1322
UseSFitting                                  ... on

GRIDX 3
-------
General Integration Accuracy     IntAcc      ... 4.338
Radial Grid Type                 RadialGrid  ... OptM3 with GC (2021)
Angular Grid (max. ang.)         AngularGrid ... 3 (Lebedev-194)
Angular grid pruning method      GridPruning ... 4 (adaptive)
Weight generation scheme         WeightScheme... mBecke (2022)
Basis function cutoff            BFCut       ... 1.0000e-11
Integration weight cutoff        WCut        ... 1.0000e-14
Partially contracted basis set               ... on
Rotationally invariant grid construction     ... off
Angular grids for H and He will be reduced by one unit
Diffuse basis detected: some atoms will have their outermost
                        angular grid increased by 1.

Total number of grid points                  ...    93946
Total number of batches                      ...      754
Average number of points per batch           ...      124
Average number of grid points per atom       ...     2847
UseSFitting                                  ... on
Initializing property integral containers    ... done (  0.0 sec)

SHARK setup successfully completed in   2.9 seconds

Maximum memory used throughout the entire STARTUP-calculation: 76.3 MB
-------------------------------------------------------------------------------
                                 ORCA GUESS
                   Start orbitals & Density for SCF / CASSCF
-------------------------------------------------------------------------------

------------
SCF SETTINGS
------------
Hamiltonian:
 Density Functional     Method          .... DFT(GTOs)
 Exchange Functional    Exchange        .... B88
   X-Alpha parameter    XAlpha          ....  0.666667
   Becke's b parameter  XBeta           ....  0.004200
 Correlation Functional Correlation     .... LYP
 LDA part of GGA corr.  LDAOpt          .... VWN-5
 Gradients option       PostSCFGGA      .... off
 Hybrid DFT is turned on
   Fraction HF Exchange ScalHFX         ....  0.200000
   Scaling of DF-GGA-X  ScalDFX         ....  0.720000
   Scaling of DF-GGA-C  ScalDFC         ....  0.810000
   Scaling of DF-LDA-C  ScalLDAC        ....  1.000000
   Perturbative correction              ....  0.000000
   NL short-range parameter             ....  4.800000
 RI-approximation to the Coulomb term is turned on
   Number of AuxJ basis functions       .... 933
   RIJ-COSX (HFX calculated with COS-X)).... on


General Settings:
 Integral files         IntName         .... Ibuprofen\Ibuprofen_B3LYP_6-311+G\Ibuprofen_B3LYP_6-311+G.orcainp
 Hartree-Fock type      HFTyp           .... RHF
 Total Charge           Charge          ....    0
 Multiplicity           Mult            ....    1
 Number of Electrons    NEL             ....  112
 Basis Dimension        Dim             ....  438
 Nuclear Repulsion      ENuc            ....    968.5045491232 Eh

Convergence Acceleration:
 AO-DIIS                CNVDIIS         .... on
   Start iteration      DIISMaxIt       ....    12
   Startup error        DIISStart       ....  0.200000
   # of expansion vecs  DIISMaxEq       ....     5
   Bias factor          DIISBfac        ....   1.050
   Max. coefficient     DIISMaxC        ....  10.000
 MO-DIIS                CNVKDIIS        .... off
 Trust-Rad. Augm. Hess. CNVTRAH         .... auto
   Auto Start mean grad. ratio tolernc. ....  1.125000
   Auto Start start iteration           ....    50
   Auto Start num. interpolation iter.  ....    10
   Max. Number of Micro iterations      ....    24
   Max. Number of Macro iterations      .... Maxiter - #DIIS iter
   Number of Davidson start vectors     ....     2
   Converg. threshold    (grad. norm)   ....   1.000e-05
   Grad. Scal. Fac. for Micro threshold ....   0.100
   Minimum threshold for Micro iter.    ....   1.000e-02
   NR start threshold (gradient norm)   ....   1.000e-04
   Initial trust radius                 ....   0.400
   Minimum AH scaling param. (alpha)    ....   1.000
   Maximum AH scaling param. (alpha)    .... 1000.000
   Quad. conv. algorithm                .... NR
   White noise on init. David. guess    .... on
   Maximum white noise                  ....   0.010
   Pseudo random numbers                .... off
   Inactive MOs                         .... canonical
   Orbital update algorithm             .... Taylor
   Preconditioner                       .... Diag
   Full preconditioner red. dimension   ....   250
 SOSCF                  CNVSOSCF        .... on
   Start iteration      SOSCFMaxIt      ....   150
   Startup grad/error   SOSCFStart      ....  0.003300
   Hessian update       SOSCFHessUp     .... L-BFGS
 Level Shifting         CNVShift        .... on
   Level shift para.    LevelShift      ....    0.2500
   Turn off err/grad.   ShiftErr        ....    0.0010
 Zerner damping         CNVZerner       .... off
 Static damping         CNVDamp         .... on
   Fraction old density DampFac         ....    0.7000
   Max. Damping (<1)    DampMax         ....    0.9800
   Min. Damping (>=0)   DampMin         ....    0.0000
   Turn off err/grad.   DampErr         ....    0.1000

SCF Procedure:
 Maximum # iterations   MaxIter         ....   125
 SCF integral mode      SCFMode         .... Direct
   Integral package                     .... SHARK and LIBINT hybrid scheme
 Reset frequency        DirectResetFreq ....    20
 Integral Threshold     Thresh          ....  1.000e-12 Eh
 Primitive CutOff       TCut            ....  1.000e-13 Eh

Convergence Tolerance:
 Convergence Check Mode ConvCheckMode   .... Total+1el-Energy
 Convergence forced     ConvForced      .... 0
 Energy Change          TolE            ....  1.000e-08 Eh
 1-El. energy change                    ....  1.000e-05 Eh
 Orbital Gradient       TolG            ....  1.000e-05
 Orbital Rotation angle TolX            ....  1.000e-05
 DIIS Error             TolErr          ....  5.000e-07

------------------------------
INITIAL GUESS: MODEL POTENTIAL
------------------------------
Loading Hartree-Fock densities                     ... done
Calculating cut-offs                               ... done
Initializing the effective Hamiltonian             ... done
Setting up the integral package (SHARK)            ... done
Starting the Coulomb interaction                   ... done (   0.5 sec)
Making the grid                                    ... done (   0.3 sec)
Mapping shells                                     ... done
Starting the XC term evaluation                    ... done (   0.6 sec)
  promolecular density results
     # of electrons  =    111.998721492
     EX              =    -88.581876866
     EC              =     -3.734558958
     EX+EC           =    -92.316435824
Transforming the Hamiltonian                       ... done (   0.0 sec)
Diagonalizing the Hamiltonian                      ... done (   0.0 sec)
Back transforming the eigenvectors                 ... done (   0.0 sec)
Now organizing SCF variables                       ... done
                      ------------------
                      INITIAL GUESS DONE (   1.4 sec)
                      ------------------
             **** ENERGY FILE WAS UPDATED (Ibuprofen\Ibuprofen_B3LYP_6-311+G\Ibuprofen_B3LYP_6-311+G.orcainp.en.tmp) ****
Finished Guess after   1.5 sec
Maximum memory used throughout the entire GUESS-calculation: 46.4 MB

-------------------------------------------------------------------------------------------
                                      ORCA LEAN-SCF
                              memory conserving SCF solver
-------------------------------------------------------------------------------------------

--------------------
CPCM SOLVATION MODEL
--------------------
CPCM parameters:
  Epsilon                                         ...      80.1510
  Refrac                                          ...       1.3328
  Rsolv                                           ...       1.3000
  Surface type                                    ... GAUSSIAN VDW
  Discretization scheme                           ... Constant charge density
    Threshold for H atoms                         ...       5.0000 (charges/Ang^2)
    Threshold for non-H atoms                     ...       5.0000 (charges/Ang^2)
  Epsilon function type                           ...         CPCM
Solvent:                                          ... WATER
Radii:
  Scheme                                          ... Element-dependent radii
  Radius for C  used is    3.8550 Bohr (=   2.0400 Ang.)
  Radius for O  used is    3.4469 Bohr (=   1.8240 Ang.)
  Radius for H  used is    2.4944 Bohr (=   1.3200 Ang.)
Calculating surface                               ...        done! (  0.0s)
Cavity surface points                             ...         2790
Cavity Volume                                     ...    1840.2604
Cavity Surface-area                               ...     988.4408
Calculating surface distance matrix               ...        done! (  0.0s)
Performing Cholesky decomposition & store         ...        done! (  0.2s)
Overall time for CPCM initialization              ...                 0.2s

----------------------------------------D-I-I-S--------------------------------------------
Iteration    Energy (Eh)           Delta-E    RMSDP     MaxDP     DIISErr   Damp  Time(sec)
-------------------------------------------------------------------------------------------
               ***  Starting incremental Fock matrix formation  ***
    1    -655.9906926307418189     0.00e+00  1.83e-02  3.17e+00  3.28e-01  0.700  18.4
    2    -656.2237670138530348    -2.33e-01  1.05e-02  1.71e+00  1.19e-01  0.700  10.0
                               ***Turning on AO-DIIS***
    3    -656.3147000420325412    -9.09e-02  2.72e-03  1.93e-01  3.99e-02  0.700   9.9
    4    -656.3690892048572323    -5.44e-02  5.91e-03  4.14e-01  2.05e-02  0.000   9.6
    5    -656.4882508770102731    -1.19e-01  1.82e-03  1.45e-01  6.08e-03  0.000   9.9
                              *** Initializing SOSCF ***
---------------------------------------S-O-S-C-F--------------------------------------
Iteration    Energy (Eh)           Delta-E    RMSDP     MaxDP     MaxGrad    Time(sec)
--------------------------------------------------------------------------------------
    6    -656.4888925501367112    -6.42e-04  6.44e-04  5.06e-02  1.91e-03     9.4
               *** Restarting incremental Fock matrix formation ***
    7    -656.4888878562759373     4.69e-06  6.81e-04  5.46e-02  1.62e-04    18.6
    8    -656.4888897403310466    -1.88e-06  2.97e-04  4.23e-02  2.18e-04    14.8
    9    -656.4888930176506392    -3.28e-06  1.21e-04  1.43e-02  8.83e-05    13.9
   10    -656.4888930012785977     1.64e-08  3.36e-05  3.14e-03  6.74e-05    13.6
   11    -656.4888933680905438    -3.67e-07  2.05e-05  1.71e-03  6.91e-06    12.5
   12    -656.4888933593953197     8.70e-09  9.36e-06  9.45e-04  1.07e-05    11.8
                 **** Energy Check signals convergence ****

               *****************************************************
               *                     SUCCESS                       *
               *           SCF CONVERGED AFTER  12 CYCLES          *
               *****************************************************

Recomputing exchange energy using gridx3       ... done (   28.887 sec)
Old exchange energy                            :    -18.057319255 Eh
New exchange energy                            :    -18.057300957 Eh
Exchange energy change after final integration :      0.000018299 Eh
Total energy after final integration           :   -656.488875061 Eh
             **** ENERGY FILE WAS UPDATED (Ibuprofen\Ibuprofen_B3LYP_6-311+G\Ibuprofen_B3LYP_6-311+G.orcainp.en.tmp) ****

----------------
TOTAL SCF ENERGY
----------------

Total Energy       :       -656.48887506069718 Eh          -17863.97048 eV

Components:
Nuclear Repulsion  :        968.50454912323642 Eh           26354.34861 eV
Electronic Energy  :      -1624.97240442664747 Eh          -44217.74711 eV
One Electron Energy:      -2811.04920968720990 Eh          -76492.53780 eV
Two Electron Energy:       1186.07680526056242 Eh           32274.79069 eV
CPCM Dielectric    :         -0.02103805598434 Eh              -0.57247 eV

Virial components:
Potential Energy   :      -1310.29921733976016 Eh          -35655.05437 eV
Kinetic Energy     :        653.81034227906287 Eh           17791.08389 eV
Virial Ratio       :          2.00409680393292

DFT components:
N(Alpha)           :       55.999997751569 electrons
N(Beta)            :       55.999997751569 electrons
N(Total)           :      111.999995503138 electrons
E(X)               :      -71.714209592566 Eh       
E(C)               :       -4.411176588160 Eh       
E(XC)              :      -76.125386180725 Eh       

CPCM Solvation Model Properties:
Surface-charge          :         -0.03657432747479
Corrected charge        :         -0.00000000000000
Outlying charge corr.   :          0.00007795336823 Eh               0.00212 eV
Free-energy (cav+disp)  :  This term is not implemented in the current solvation scheme

---------------
SCF CONVERGENCE
---------------

  Last Energy change         ...   -8.6952e-09  Tolerance :   1.0000e-08
  Last MAX-Density change    ...    9.4512e-04  Tolerance :   1.0000e-07
  Last RMS-Density change    ...    9.3589e-06  Tolerance :   5.0000e-09
  Last DIIS Error            ...    1.9062e-03  Tolerance :   5.0000e-07
  Last Orbital Gradient      ...    1.0666e-05  Tolerance :   1.0000e-05
  Last Orbital Rotation      ...    1.7313e-05  Tolerance :   1.0000e-05


----------------
ORBITAL ENERGIES
----------------

  NO   OCC          E(Eh)            E(eV) 
   0   2.0000     -19.177412      -521.8439 
   1   2.0000     -19.123347      -520.3727 
   2   2.0000     -10.320185      -280.8265 
   3   2.0000     -10.200004      -277.5562 
   4   2.0000     -10.188468      -277.2423 
   5   2.0000     -10.181709      -277.0584 
   6   2.0000     -10.178146      -276.9614 
   7   2.0000     -10.177755      -276.9508 
   8   2.0000     -10.173719      -276.8410 
   9   2.0000     -10.172994      -276.8212 
  10   2.0000     -10.168112      -276.6884 
  11   2.0000     -10.163584      -276.5652 
  12   2.0000     -10.163257      -276.5563 
  13   2.0000     -10.148232      -276.1474 
  14   2.0000     -10.147275      -276.1214 
  15   2.0000      -1.110647       -30.2222 
  16   2.0000      -1.029461       -28.0131 
  17   2.0000      -0.868534       -23.6340 
  18   2.0000      -0.819795       -22.3078 
  19   2.0000      -0.794021       -21.6064 
  20   2.0000      -0.749533       -20.3958 
  21   2.0000      -0.742952       -20.2168 
  22   2.0000      -0.678920       -18.4744 
  23   2.0000      -0.675330       -18.3767 
  24   2.0000      -0.659977       -17.9589 
  25   2.0000      -0.625071       -17.0090 
  26   2.0000      -0.612834       -16.6761 
  27   2.0000      -0.587759       -15.9937 
  28   2.0000      -0.554874       -15.0989 
  29   2.0000      -0.530577       -14.4377 
  30   2.0000      -0.499694       -13.5974 
  31   2.0000      -0.477449       -12.9921 
  32   2.0000      -0.470053       -12.7908 
  33   2.0000      -0.457732       -12.4555 
  34   2.0000      -0.452790       -12.3211 
  35   2.0000      -0.448828       -12.2132 
  36   2.0000      -0.433091       -11.7850 
  37   2.0000      -0.429440       -11.6856 
  38   2.0000      -0.421468       -11.4687 
  39   2.0000      -0.412761       -11.2318 
  40   2.0000      -0.402169       -10.9436 
  41   2.0000      -0.387519       -10.5449 
  42   2.0000      -0.378571       -10.3015 
  43   2.0000      -0.370153       -10.0724 
  44   2.0000      -0.369134       -10.0446 
  45   2.0000      -0.362945        -9.8762 
  46   2.0000      -0.357431        -9.7262 
  47   2.0000      -0.342641        -9.3237 
  48   2.0000      -0.341457        -9.2915 
  49   2.0000      -0.331540        -9.0217 
  50   2.0000      -0.328933        -8.9507 
  51   2.0000      -0.321121        -8.7382 
  52   2.0000      -0.315488        -8.5849 
  53   2.0000      -0.295347        -8.0368 
  54   2.0000      -0.260064        -7.0767 
  55   2.0000      -0.244520        -6.6537 
  56   0.0000      -0.023910        -0.6506 
  57   0.0000      -0.019771        -0.5380 
  58   0.0000      -0.013809        -0.3758 
  59   0.0000       0.003113         0.0847 
  60   0.0000       0.016436         0.4472 
  61   0.0000       0.022394         0.6094 
  62   0.0000       0.025995         0.7074 
  63   0.0000       0.030820         0.8387 
  64   0.0000       0.036772         1.0006 
  65   0.0000       0.039071         1.0632 
  66   0.0000       0.042581         1.1587 
*Only the first 10 virtual orbitals were printed.

                    ********************************
                    * MULLIKEN POPULATION ANALYSIS *
                    ********************************

-----------------------
MULLIKEN ATOMIC CHARGES
-----------------------
   0 C :   -0.639280
   1 C :    0.524650
   2 C :   -0.705945
   3 C :   -1.031550
   4 C :    1.660194
   5 C :   -0.755103
   6 C :   -0.535754
   7 C :    0.890094
   8 C :   -0.680140
   9 C :   -0.564593
  10 C :    0.040159
  11 C :   -0.539356
  12 C :   -0.007992
  13 O :   -0.254148
  14 O :   -0.367559
  15 H :    0.142878
  16 H :    0.145815
  17 H :    0.144659
  18 H :    0.135639
  19 H :    0.144419
  20 H :    0.142151
  21 H :    0.142713
  22 H :    0.151638
  23 H :    0.165831
  24 H :    0.150617
  25 H :    0.153266
  26 H :    0.165844
  27 H :    0.149424
  28 H :    0.198816
  29 H :    0.161403
  30 H :    0.161465
  31 H :    0.162889
  32 H :    0.346855
Sum of atomic charges:    0.0000000

--------------------------------
MULLIKEN REDUCED ORBITAL CHARGES
--------------------------------
  0 C s       :     3.454718  s :     3.454718
      pz      :     1.007317  p :     3.139123
      px      :     1.089478
      py      :     1.042328
      dz2     :     0.012894  d :     0.045439
      dxz     :     0.005964
      dyz     :     0.008108
      dx2y2   :     0.013244
      dxy     :     0.005228

  1 C s       :     2.675994  s :     2.675994
      pz      :     0.979208  p :     2.726446
      px      :     0.848580
      py      :     0.898658
      dz2     :     0.014446  d :     0.072910
      dxz     :     0.012718
      dyz     :     0.014686
      dx2y2   :     0.017920
      dxy     :     0.013141

  2 C s       :     3.515950  s :     3.515950
      pz      :     1.076557  p :     3.144446
      px      :     0.968861
      py      :     1.099028
      dz2     :     0.007384  d :     0.045549
      dxz     :     0.010569
      dyz     :     0.008429
      dx2y2   :     0.010480
      dxy     :     0.008687

  3 C s       :     3.951834  s :     3.951834
      pz      :     1.145091  p :     3.021438
      px      :     0.828944
      py      :     1.047404
      dz2     :     0.009003  d :     0.058278
      dxz     :     0.009566
      dyz     :     0.013369
      dx2y2   :     0.015031
      dxy     :     0.011308

  4 C s       :     2.093756  s :     2.093756
      pz      :     0.708692  p :     2.173392
      px      :     0.679309
      py      :     0.785391
      dz2     :     0.018034  d :     0.072658
      dxz     :     0.023429
      dyz     :     0.010032
      dx2y2   :     0.010469
      dxy     :     0.010694

  5 C s       :     3.552557  s :     3.552557
      pz      :     1.083870  p :     3.145373
      px      :     1.083754
      py      :     0.977749
      dz2     :     0.013764  d :     0.057173
      dxz     :     0.019397
      dyz     :     0.005397
      dx2y2   :     0.008696
      dxy     :     0.009918

  6 C s       :     3.414945  s :     3.414945
      pz      :     0.963426  p :     3.062945
      px      :     1.068437
      py      :     1.031082
      dz2     :     0.012682  d :     0.057863
      dxz     :     0.021107
      dyz     :     0.006218
      dx2y2   :     0.008167
      dxy     :     0.009689

  7 C s       :     2.555736  s :     2.555736
      pz      :     0.615951  p :     2.483056
      px      :     0.816949
      py      :     1.050156
      dz2     :     0.018316  d :     0.071115
      dxz     :     0.021763
      dyz     :     0.010438
      dx2y2   :     0.011073
      dxy     :     0.009524

  8 C s       :     3.532717  s :     3.532717
      pz      :     0.973716  p :     3.089845
      px      :     1.110732
      py      :     1.005397
      dz2     :     0.013403  d :     0.057579
      dxz     :     0.019370
      dyz     :     0.005491
      dx2y2   :     0.008540
      dxy     :     0.010774

  9 C s       :     3.503930  s :     3.503930
      pz      :     1.058783  p :     3.003103
      px      :     0.987251
      py      :     0.957069
      dz2     :     0.012954  d :     0.057561
      dxz     :     0.021068
      dyz     :     0.006040
      dx2y2   :     0.008311
      dxy     :     0.009188

 10 C s       :     3.021999  s :     3.021999
      pz      :     1.103814  p :     2.869570
      px      :     0.974780
      py      :     0.790975
      dz2     :     0.010931  d :     0.068273
      dxz     :     0.012311
      dyz     :     0.013672
      dx2y2   :     0.015632
      dxy     :     0.015727

 11 C s       :     3.400625  s :     3.400625
      pz      :     1.082603  p :     3.093427
      px      :     1.112213
      py      :     0.898611
      dz2     :     0.009820  d :     0.045304
      dxz     :     0.004553
      dyz     :     0.011181
      dx2y2   :     0.013052
      dxy     :     0.006699

 12 C s       :     3.363113  s :     3.363113
      pz      :     0.831249  p :     2.450190
      px      :     0.801848
      py      :     0.817093
      dz2     :     0.020855  d :     0.194689
      dxz     :     0.051170
      dyz     :     0.016385
      dx2y2   :     0.040183
      dxy     :     0.066096

 13 O s       :     3.708950  s :     3.708950
      pz      :     1.666820  p :     4.533018
      px      :     1.331654
      py      :     1.534544
      dz2     :     0.001669  d :     0.012180
      dxz     :     0.002327
      dyz     :     0.002558
      dx2y2   :     0.003782
      dxy     :     0.001844

 14 O s       :     3.877717  s :     3.877717
      pz      :     1.548397  p :     4.474530
      px      :     1.249872
      py      :     1.676261
      dz2     :     0.001949  d :     0.015313
      dxz     :     0.004141
      dyz     :     0.000227
      dx2y2   :     0.005476
      dxy     :     0.003520

 15 H s       :     0.834522  s :     0.834522
      pz      :     0.005187  p :     0.022600
      px      :     0.005934
      py      :     0.011479

 16 H s       :     0.831846  s :     0.831846
      pz      :     0.011209  p :     0.022339
      px      :     0.006000
      py      :     0.005130

 17 H s       :     0.832377  s :     0.832377
      pz      :     0.005038  p :     0.022964
      px      :     0.012885
      py      :     0.005041

 18 H s       :     0.842993  s :     0.842993
      pz      :     0.010765  p :     0.021368
      px      :     0.005645
      py      :     0.004957

 19 H s       :     0.833053  s :     0.833053
      pz      :     0.010346  p :     0.022528
      px      :     0.006311
      py      :     0.005872

 20 H s       :     0.835157  s :     0.835157
      pz      :     0.005421  p :     0.022692
      px      :     0.005700
      py      :     0.011571

 21 H s       :     0.834598  s :     0.834598
      pz      :     0.009452  p :     0.022689
      px      :     0.005381
      py      :     0.007857

 22 H s       :     0.826453  s :     0.826453
      pz      :     0.010659  p :     0.021910
      px      :     0.006034
      py      :     0.005216

 23 H s       :     0.811773  s :     0.811773
      pz      :     0.008860  p :     0.022396
      px      :     0.005390
      py      :     0.008146

 24 H s       :     0.824244  s :     0.824244
      pz      :     0.012621  p :     0.025139
      px      :     0.006067
      py      :     0.006451

 25 H s       :     0.821589  s :     0.821589
      pz      :     0.011330  p :     0.025145
      px      :     0.007642
      py      :     0.006174

 26 H s       :     0.809189  s :     0.809189
      pz      :     0.012643  p :     0.024967
      px      :     0.005945
      py      :     0.006379

 27 H s       :     0.825443  s :     0.825443
      pz      :     0.011089  p :     0.025133
      px      :     0.007779
      py      :     0.006265

 28 H s       :     0.778411  s :     0.778411
      pz      :     0.012365  p :     0.022773
      px      :     0.005597
      py      :     0.004811

 29 H s       :     0.815987  s :     0.815987
      pz      :     0.011602  p :     0.022610
      px      :     0.005895
      py      :     0.005113

 30 H s       :     0.815927  s :     0.815927
      pz      :     0.008435  p :     0.022608
      px      :     0.006138
      py      :     0.008035

 31 H s       :     0.814330  s :     0.814330
      pz      :     0.005122  p :     0.022781
      px      :     0.013030
      py      :     0.004629

 32 H s       :     0.589171  s :     0.589171
      pz      :     0.017085  p :     0.063974
      px      :     0.031373
      py      :     0.015516



                     *******************************
                     * LOEWDIN POPULATION ANALYSIS *
                     *******************************

----------------------
LOEWDIN ATOMIC CHARGES
----------------------
   0 C :   -0.122639
   1 C :   -0.168140
   2 C :   -0.126796
   3 C :   -0.108448
   4 C :   -0.110687
   5 C :   -0.064328
   6 C :   -0.052514
   7 C :   -0.136483
   8 C :   -0.065651
   9 C :   -0.066128
  10 C :   -0.114852
  11 C :   -0.081863
  12 C :    0.022838
  13 O :   -0.058831
  14 O :   -0.244429
  15 H :    0.060886
  16 H :    0.070619
  17 H :    0.068031
  18 H :    0.075873
  19 H :    0.065881
  20 H :    0.060088
  21 H :    0.060088
  22 H :    0.087569
  23 H :    0.086956
  24 H :    0.092730
  25 H :    0.091693
  26 H :    0.098221
  27 H :    0.090626
  28 H :    0.116025
  29 H :    0.077267
  30 H :    0.074121
  31 H :    0.070574
  32 H :    0.151701

-------------------------------
LOEWDIN REDUCED ORBITAL CHARGES
-------------------------------
  0 C s       :     2.795697  s :     2.795697
      pz      :     1.072281  p :     3.229878
      px      :     1.082811
      py      :     1.074786
      dz2     :     0.026371  d :     0.097064
      dxz     :     0.012682
      dyz     :     0.019529
      dx2y2   :     0.027331
      dxy     :     0.011151

  1 C s       :     2.799474  s :     2.799474
      pz      :     1.072004  p :     3.210059
      px      :     1.074793
      py      :     1.063261
      dz2     :     0.030485  d :     0.158607
      dxz     :     0.025308
      dyz     :     0.032786
      dx2y2   :     0.042125
      dxy     :     0.027903

  2 C s       :     2.802650  s :     2.802650
      pz      :     1.083795  p :     3.226657
      px      :     1.055032
      py      :     1.087830
      dz2     :     0.015625  d :     0.097490
      dxz     :     0.022109
      dyz     :     0.016580
      dx2y2   :     0.024740
      dxy     :     0.018434

  3 C s       :     2.782874  s :     2.782874
      pz      :     1.083331  p :     3.198232
      px      :     1.045968
      py      :     1.068933
      dz2     :     0.019689  d :     0.127343
      dxz     :     0.020434
      dyz     :     0.026635
      dx2y2   :     0.035869
      dxy     :     0.024716

  4 C s       :     2.787778  s :     2.787778
      pz      :     1.120675  p :     3.158311
      px      :     1.095455
      py      :     0.942181
      dz2     :     0.043150  d :     0.164597
      dxz     :     0.054313
      dyz     :     0.021604
      dx2y2   :     0.023953
      dxy     :     0.021578

  5 C s       :     2.784423  s :     2.784423
      pz      :     1.066748  p :     3.148444
      px      :     1.107235
      py      :     0.974460
      dz2     :     0.031811  d :     0.131462
      dxz     :     0.046366
      dyz     :     0.010262
      dx2y2   :     0.022655
      dxy     :     0.020368

  6 C s       :     2.786900  s :     2.786900
      pz      :     1.064680  p :     3.132783
      px      :     1.102496
      py      :     0.965607
      dz2     :     0.030576  d :     0.132831
      dxz     :     0.049044
      dyz     :     0.012780
      dx2y2   :     0.020629
      dxy     :     0.019802

  7 C s       :     2.785768  s :     2.785768
      pz      :     1.129639  p :     3.188445
      px      :     1.071763
      py      :     0.987043
      dz2     :     0.043540  d :     0.162270
      dxz     :     0.051481
      dyz     :     0.022216
      dx2y2   :     0.025156
      dxy     :     0.019876

  8 C s       :     2.784203  s :     2.784203
      pz      :     1.063982  p :     3.149036
      px      :     1.112064
      py      :     0.972990
      dz2     :     0.030872  d :     0.132412
      dxz     :     0.046299
      dyz     :     0.010782
      dx2y2   :     0.022224
      dxy     :     0.022235

  9 C s       :     2.787182  s :     2.787182
      pz      :     1.068637  p :     3.146666
      px      :     1.099851
      py      :     0.978177
      dz2     :     0.031095  d :     0.132281
      dxz     :     0.048965
      dyz     :     0.012155
      dx2y2   :     0.021056
      dxy     :     0.019009

 10 C s       :     2.777438  s :     2.777438
      pz      :     1.069105  p :     3.185679
      px      :     1.051310
      py      :     1.065264
      dz2     :     0.023617  d :     0.151735
      dxz     :     0.026369
      dyz     :     0.030053
      dx2y2   :     0.038400
      dxy     :     0.033296

 11 C s       :     2.789862  s :     2.789862
      pz      :     1.084627  p :     3.195465
      px      :     1.087622
      py      :     1.023217
      dz2     :     0.020279  d :     0.096535
      dxz     :     0.008590
      dyz     :     0.023821
      dx2y2   :     0.028819
      dxy     :     0.015026

 12 C s       :     2.777236  s :     2.777236
      pz      :     0.851115  p :     2.789140
      px      :     1.033828
      py      :     0.904197
      dz2     :     0.045057  d :     0.410786
      dxz     :     0.100666
      dyz     :     0.037870
      dx2y2   :     0.094200
      dxy     :     0.132992

 13 O s       :     3.380773  s :     3.380773
      pz      :     1.686710  p :     4.659464
      px      :     1.369051
      py      :     1.603703
      dz2     :     0.001965  d :     0.018594
      dxz     :     0.003330
      dyz     :     0.003889
      dx2y2   :     0.005783
      dxy     :     0.003626

 14 O s       :     3.510935  s :     3.510935
      pz      :     1.561435  p :     4.710702
      px      :     1.482720
      py      :     1.666548
      dz2     :     0.003199  d :     0.022791
      dxz     :     0.005313
      dyz     :     0.000245
      dx2y2   :     0.009817
      dxy     :     0.004217

 15 H s       :     0.870551  s :     0.870551
      pz      :     0.015029  p :     0.068562
      px      :     0.016953
      py      :     0.036581

 16 H s       :     0.860672  s :     0.860672
      pz      :     0.036309  p :     0.068709
      px      :     0.017338
      py      :     0.015061

 17 H s       :     0.862116  s :     0.862116
      pz      :     0.013954  p :     0.069854
      px      :     0.041781
      py      :     0.014119

 18 H s       :     0.853595  s :     0.853595
      pz      :     0.035372  p :     0.070532
      px      :     0.018677
      py      :     0.016482

 19 H s       :     0.865342  s :     0.865342
      pz      :     0.032864  p :     0.068778
      px      :     0.019459
      py      :     0.016455

 20 H s       :     0.871388  s :     0.871388
      pz      :     0.014626  p :     0.068524
      px      :     0.016933
      py      :     0.036965

 21 H s       :     0.871319  s :     0.871319
      pz      :     0.029145  p :     0.068593
      px      :     0.015979
      py      :     0.023469

 22 H s       :     0.844218  s :     0.844218
      pz      :     0.034296  p :     0.068212
      px      :     0.017464
      py      :     0.016453

 23 H s       :     0.843049  s :     0.843049
      pz      :     0.027754  p :     0.069996
      px      :     0.016011
      py      :     0.026230

 24 H s       :     0.836614  s :     0.836614
      pz      :     0.036971  p :     0.070656
      px      :     0.017189
      py      :     0.016496

 25 H s       :     0.838049  s :     0.838049
      pz      :     0.032796  p :     0.070258
      px      :     0.021868
      py      :     0.015594

 26 H s       :     0.830829  s :     0.830829
      pz      :     0.037273  p :     0.070949
      px      :     0.016948
      py      :     0.016728

 27 H s       :     0.839094  s :     0.839094
      pz      :     0.032200  p :     0.070280
      px      :     0.022203
      py      :     0.015878

 28 H s       :     0.813174  s :     0.813174
      pz      :     0.038591  p :     0.070802
      px      :     0.016615
      py      :     0.015595

 29 H s       :     0.853604  s :     0.853604
      pz      :     0.037261  p :     0.069129
      px      :     0.016811
      py      :     0.015058

 30 H s       :     0.857352  s :     0.857352
      pz      :     0.026240  p :     0.068526
      px      :     0.017909
      py      :     0.024377

 31 H s       :     0.859832  s :     0.859832
      pz      :     0.013744  p :     0.069594
      px      :     0.042635
      py      :     0.013214

 32 H s       :     0.661216  s :     0.661216
      pz      :     0.047099  p :     0.187083
      px      :     0.103714
      py      :     0.036270



                      *****************************
                      * MAYER POPULATION ANALYSIS *
                      *****************************

  NA   - Mulliken gross atomic population
  ZA   - Total nuclear charge
  QA   - Mulliken gross atomic charge
  VA   - Mayer's total valence
  BVA  - Mayer's bonded valence
  FA   - Mayer's free valence

[...]
      pz      :     1.067525  p :     3.145676
      px      :     1.110747
      py      :     0.967404
      dz2     :     0.032558  d :     0.132884
      dxz     :     0.048095
      dyz     :     0.009874
      dx2y2   :     0.021455
      dxy     :     0.020901

  9 C s       :     2.785863  s :     2.785863
      pz      :     1.072310  p :     3.146396
      px      :     1.099710
      py      :     0.974375
      dz2     :     0.032365  d :     0.132732
      dxz     :     0.051027
      dyz     :     0.011468
      dx2y2   :     0.020002
      dxy     :     0.017869

 10 C s       :     2.778905  s :     2.778905
      pz      :     1.064975  p :     3.187466
      px      :     1.053717
      py      :     1.068773
      dz2     :     0.022962  d :     0.151784
      dxz     :     0.023248
      dyz     :     0.035849
      dx2y2   :     0.038056
      dxy     :     0.031669

 11 C s       :     2.789081  s :     2.789081
      pz      :     1.086346  p :     3.199390
      px      :     1.081553
      py      :     1.031490
      dz2     :     0.019166  d :     0.094922
      dxz     :     0.009127
      dyz     :     0.024003
      dx2y2   :     0.028462
      dxy     :     0.014165

 12 C s       :     2.776197  s :     2.776197
      pz      :     1.002456  p :     2.804678
      px      :     0.831083
      py      :     0.971139
      dz2     :     0.092924  d :     0.416899
      dxz     :     0.057049
      dyz     :     0.119977
      dx2y2   :     0.074821
      dxy     :     0.072127

 13 O s       :     3.388319  s :     3.388319
      pz      :     1.513363  p :     4.651042
      px      :     1.647415
      py      :     1.490265
      dz2     :     0.004456  d :     0.019132
      dxz     :     0.003359
      dyz     :     0.002297
      dx2y2   :     0.006678
      dxy     :     0.002341

 14 O s       :     3.494735  s :     3.494735
      pz      :     1.496125  p :     4.702302
      px      :     1.447011
      py      :     1.759165
      dz2     :     0.007343  d :     0.023769
      dxz     :     0.008666
      dyz     :     0.004272
      dx2y2   :     0.001758
      dxy     :     0.001731

 15 H s       :     0.870643  s :     0.870643
      pz      :     0.014195  p :     0.068709
      px      :     0.016570
      py      :     0.037943

 16 H s       :     0.861561  s :     0.861561
      pz      :     0.031664  p :     0.068499
      px      :     0.019694
      py      :     0.017140

 17 H s       :     0.862516  s :     0.862516
      pz      :     0.015085  p :     0.069857
      px      :     0.040838
      py      :     0.013933

 18 H s       :     0.853686  s :     0.853686
      pz      :     0.030995  p :     0.070554
      px      :     0.020733
      py      :     0.018825

 19 H s       :     0.865092  s :     0.865092
      pz      :     0.028944  p :     0.068682
      px      :     0.021491
      py      :     0.018247

 20 H s       :     0.871284  s :     0.871284
      pz      :     0.014070  p :     0.068685
      px      :     0.017114
      py      :     0.037502

 21 H s       :     0.871003  s :     0.871003
      pz      :     0.032736  p :     0.068651
      px      :     0.014605
      py      :     0.021310

 22 H s       :     0.843355  s :     0.843355
      pz      :     0.031803  p :     0.069121
      px      :     0.018295
      py      :     0.019024

 23 H s       :     0.844980  s :     0.844980
      pz      :     0.031701  p :     0.069760
      px      :     0.015486
      py      :     0.022573

 24 H s       :     0.838464  s :     0.838464
      pz      :     0.037980  p :     0.070758
      px      :     0.016960
      py      :     0.015818

 25 H s       :     0.837895  s :     0.837895
      pz      :     0.032958  p :     0.070832
      px      :     0.022771
      py      :     0.015103

 26 H s       :     0.832327  s :     0.832327
      pz      :     0.038320  p :     0.071218
      px      :     0.017008
      py      :     0.015890

 27 H s       :     0.839158  s :     0.839158
      pz      :     0.032805  p :     0.070674
      px      :     0.022710
      py      :     0.015160

 28 H s       :     0.817635  s :     0.817635
      pz      :     0.037832  p :     0.071639
      px      :     0.018111
      py      :     0.015696

 29 H s       :     0.853191  s :     0.853191
      pz      :     0.036481  p :     0.069541
      px      :     0.017242
      py      :     0.015818

 30 H s       :     0.857782  s :     0.857782
      pz      :     0.028041  p :     0.068903
      px      :     0.016601
      py      :     0.024261

 31 H s       :     0.860914  s :     0.860914
      pz      :     0.013609  p :     0.069070
      px      :     0.042407
      py      :     0.013054

 32 H s       :     0.664574  s :     0.664574
      pz      :     0.091431  p :     0.184342
      px      :     0.061407
      py      :     0.031504



                      *****************************
                      * MAYER POPULATION ANALYSIS *
                      *****************************

  NA   - Mulliken gross atomic population
  ZA   - Total nuclear charge
  QA   - Mulliken gross atomic charge
  VA   - Mayer's total valence
  BVA  - Mayer's bonded valence
  FA   - Mayer's free valence

  ATOM       NA         ZA         QA         VA         BVA        FA
  0 C      6.6219     6.0000    -0.6219     3.7592     3.7592     0.0000
  1 C      5.6020     6.0000     0.3980     3.0448     3.0448     0.0000
  2 C      6.6949     6.0000    -0.6949     3.7989     3.7989    -0.0000
  3 C      7.0329     6.0000    -1.0329     3.3594     3.3594    -0.0000
  4 C      4.3367     6.0000     1.6633     1.0439     1.0439     0.0000
  5 C      6.5547     6.0000    -0.5547     4.4393     4.4393     0.0000
  6 C      6.3794     6.0000    -0.3794     3.4485     3.4485    -0.0000
  7 C      5.3168     6.0000     0.6832     3.5408     3.5408     0.0000
  8 C      6.4123     6.0000    -0.4123     4.3868     4.3868     0.0000
  9 C      6.7061     6.0000    -0.7061     4.2865     4.2865    -0.0000
 10 C      5.9769     6.0000     0.0231     3.0862     3.0862    -0.0000
 11 C      6.6615     6.0000    -0.6615     3.9440     3.9440    -0.0000
 12 C      6.0708     6.0000    -0.0708     4.2368     4.2368     0.0000
 13 O      8.1980     8.0000    -0.1980     2.0187     2.0187     0.0000
 14 O      8.3516     8.0000    -0.3516     1.9806     1.9806     0.0000
 15 H      0.8557     1.0000     0.1443     0.9497     0.9497    -0.0000
 16 H      0.8557     1.0000     0.1443     0.9529     0.9529    -0.0000
 17 H      0.8529     1.0000     0.1471     0.9504     0.9504     0.0000
 18 H      0.8641     1.0000     0.1359     0.9667     0.9667    -0.0000
 19 H      0.8554     1.0000     0.1446     0.9525     0.9525    -0.0000
 20 H      0.8563     1.0000     0.1437     0.9475     0.9475    -0.0000
 21 H      0.8577     1.0000     0.1423     0.9478     0.9478     0.0000
 22 H      0.8485     1.0000     0.1515     0.9564     0.9564    -0.0000
 23 H      0.8453     1.0000     0.1547     0.9459     0.9459     0.0000
 24 H      0.8529     1.0000     0.1471     0.9662     0.9662    -0.0000
 25 H      0.8476     1.0000     0.1524     0.9608     0.9608     0.0000
 26 H      0.8448     1.0000     0.1552     0.9682     0.9682    -0.0000
 27 H      0.8539     1.0000     0.1461     0.9638     0.9638    -0.0000
 28 H      0.7999     1.0000     0.2001     0.9428     0.9428    -0.0000
 29 H      0.8233     1.0000     0.1767     0.9451     0.9451    -0.0000
 30 H      0.8419     1.0000     0.1581     0.9473     0.9473    -0.0000
 31 H      0.8413     1.0000     0.1587     0.9434     0.9434     0.0000
 32 H      0.6864     1.0000     0.3136     0.9562     0.9562     0.0000

  Mayer bond orders larger than 0.100000
B(  0-C ,  1-C ) :   0.8304 B(  0-C ,  3-C ) :  -0.1057 B(  0-C , 15-H ) :   1.0040 
B(  0-C , 16-H ) :   0.9918 B(  0-C , 17-H ) :   0.9890 B(  1-C ,  2-C ) :   0.6924 
B(  1-C ,  3-C ) :   0.8659 B(  1-C ,  4-C ) :  -0.1343 B(  1-C ,  5-C ) :   0.1128 
B(  1-C , 18-H ) :   0.9591 B(  2-C ,  3-C ) :   0.2750 B(  2-C ,  4-C ) :  -0.2495 
B(  2-C , 19-H ) :   1.0146 B(  2-C , 20-H ) :   0.9984 B(  2-C , 21-H ) :   0.9899 
B(  3-C ,  4-C ) :  -0.5830 B(  3-C ,  5-C ) :   0.2711 B(  3-C ,  6-C ) :   0.1039 
B(  3-C ,  7-C ) :  -0.1822 B(  3-C ,  8-C ) :   0.1101 B(  3-C ,  9-C ) :   0.1560 
B(  3-C , 22-H ) :   1.2122 B(  3-C , 23-H ) :   1.0615 B(  4-C ,  5-C ) :   1.3706 
B(  4-C ,  7-C ) :   0.4867 B(  4-C ,  8-C ) :  -0.2282 B(  4-C ,  9-C ) :   1.2394 
B(  4-C , 10-C ) :  -0.1305 B(  4-C , 18-H ) :  -0.1014 B(  4-C , 22-H ) :  -0.4274 
B(  4-C , 23-H ) :  -0.1833 B(  5-C ,  6-C ) :   1.2957 B(  5-C ,  9-C ) :   0.3440 
B(  5-C , 23-H ) :   0.1103 B(  5-C , 24-H ) :   0.9220 B(  6-C ,  7-C ) :   1.4419 
B(  6-C ,  8-C ) :   0.1052 B(  6-C ,  9-C ) :  -0.1160 B(  6-C , 12-C ) :  -0.1505 
B(  6-C , 13-O ) :  -0.2215 B(  6-C , 25-H ) :   0.9080 B(  6-C , 28-H ) :   0.1824 
B(  7-C ,  8-C ) :   1.6558 B(  7-C , 10-C ) :   0.2428 B(  7-C , 11-C ) :  -0.2503 
B(  7-C , 12-C ) :  -0.2170 B(  7-C , 13-O ) :   0.4440 B(  7-C , 14-O ) :   0.1185 
B(  7-C , 28-H ) :  -0.2622 B(  7-C , 29-H ) :  -0.1136 B(  7-C , 32-H ) :   0.1036 
B(  8-C ,  9-C ) :   1.3095 B(  8-C , 10-C ) :   0.1874 B(  8-C , 11-C ) :   0.2917 
B(  8-C , 12-C ) :   0.3331 B(  8-C , 14-O ) :  -0.2669 B(  8-C , 26-H ) :   0.8600 
B(  9-C , 10-C ) :   0.1350 B(  9-C , 22-H ) :   0.2509 B(  9-C , 27-H ) :   0.9047 
B( 10-C , 11-C ) :   0.9380 B( 10-C , 12-C ) :   0.8556 B( 10-C , 13-O ) :  -0.2511 
B( 10-C , 28-H ) :   1.0225 B( 11-C , 29-H ) :   0.9729 B( 11-C , 30-H ) :   0.9966 
B( 11-C , 31-H ) :   0.9837 B( 12-C , 13-O ) :   1.3449 B( 12-C , 14-O ) :   2.0771 
B( 13-O , 32-H ) :   0.8554 

-------
TIMINGS
-------

Total SCF time: 0 days 0 hours 1 min 31 sec 

Total time                  ....      91.184 sec
Sum of individual times     ....      91.123 sec  ( 99.9%)

SCF preparation             ....       0.307 sec  (  0.3%)
Fock matrix formation       ....      90.560 sec  ( 99.3%)
  Startup                   ....       0.010 sec  (  0.0% of F)
  Split-RI-J                ....       3.445 sec  (  3.8% of F)
  Chain of spheres X        ....      74.372 sec  ( 82.1% of F)
  XC integration            ....       6.937 sec  (  7.7% of F)
    Basis function eval.    ....       1.507 sec  ( 21.7% of XC)
    Density eval.           ....       2.177 sec  ( 31.4% of XC)
    XC-Functional eval.     ....       0.101 sec  (  1.5% of XC)
    XC-Potential eval.      ....       2.982 sec  ( 43.0% of XC)
  CPCM terms                ....       5.760 sec  (  6.4% of F)
Diagonalization             ....       0.000 sec  (  0.0%)
Density matrix formation    ....       0.020 sec  (  0.0%)
Total Energy calculation    ....       0.025 sec  (  0.0%)
Population analysis         ....       0.062 sec  (  0.1%)
Orbital Transformation      ....       0.028 sec  (  0.0%)
Orbital Orthonormalization  ....       0.000 sec  (  0.0%)
DIIS solution               ....       0.033 sec  (  0.0%)
SOSCF solution              ....       0.088 sec  (  0.1%)
Finished LeanSCF after  91.3 sec

Maximum memory used throughout the entire LEANSCF-calculation: 95.5 MB

-------------------------   --------------------
FINAL SINGLE POINT ENERGY      -656.493327557205
-------------------------   --------------------

                                *** OPTIMIZATION RUN DONE ***


------------------------------------------------------------------------------
                              ORCA PROPERTY CALCULATIONS
------------------------------------------------------------------------------

GBWName                                 ... Ibuprofen\Ibuprofen_B3LYP_6-311+G\Ibuprofen_B3LYP_6-311+G.orcainp.gbw
Number of atoms                         ...     33
Number of basis functions               ...    438
Max core memory                         ...   1024 MB

Electric properties:
Dipole moment                           ... YES
Quadrupole moment                       ...  NO
Static polarizability (Dipole/Dipole)   ...  NO
Static polarizability (Dipole/Quad.)    ...  NO
Static polarizability (Quad./Quad.)     ...  NO
Static polarizability (Velocity)        ...  NO

Atomic electric properties:
Dipole moment                           ...  NO
Quadrupole moment                       ...  NO
Static polarizability                   ...  NO

Choice of electric origin               ... Center of mass
Position of electric origin             ...    11.467231    -2.033841    -0.996954

General magnetic properties:
Magnetizability                         ...  NO

EPR properties:
g-Tensor (aka g-matrix)                 ...  NO
Zero-Field splitting spin-orbit         ...  NO
Zero-field splitting spin-spin          ...  NO
Hyperfine couplings                     ...  NO (   0 nuclei)
Quadrupole couplings                    ...  NO (   0 nuclei)
Contact density                         ...  NO (   0 nuclei)

NMR properties:
Chemical shifts                         ...  NO (   0 nuclei)
Spin-rotation constants                 ...  NO (   0 nuclei)
Spin-spin couplings                     ...  NO (   0 nuclei,    0 pairs)

Choice of magnetic origin               ... GIAO
Position of magnetic origin             ...     0.000000     0.000000     0.000000

Properties with geometric perturbations:
SCF Hessian                             ...  NO
IR spectrum                             ...  NO
VCD spectrum                            ...  NO
X-ray spectroscopy properties:
SCF XES/XAS/RIXS spectra                ...  NO


-------------
DIPOLE MOMENT
-------------

Method             : SCF
Type of density    : Electron Density
Multiplicity       :   1
Irrep              :   0
Energy             :  -656.4933275572052480 Eh
Relativity type    : 
Basis              : AO
                                X                 Y                 Z
Electronic contribution:     18.987563858      -1.309990443      -3.252779349
Nuclear contribution   :    -20.456490989       1.125777528       5.343011230
                        -----------------------------------------
Total Dipole Moment    :     -1.468927131      -0.184212914       2.090231881
                        -----------------------------------------
Magnitude (a.u.)       :      2.561396227
Magnitude (Debye)      :      6.510551806



--------------------
Rotational spectrum 
--------------------
 
Rotational constants in cm-1:             0.046472             0.008503             0.008044 
Rotational constants in MHz :          1393.186824           254.908522           241.148639 

Dipole components along the rotational axes: 
x,y,z [a.u.] :     1.795264    -1.257287     1.325522 
x,y,z [Debye]:     4.563198    -3.195769     3.369210 

 

Dipole moment calculation done in   0.0 sec 

Maximum memory used throughout the entire PROP-calculation: 36.9 MB

--------------------------------
SUGGESTED CITATIONS FOR THIS RUN
--------------------------------

Below you find a list of papers that are relevant to this ORCA run
We neither can nor want to force you to cite these papers, but we appreciate if you do
You receive ORCA, which is the product of decades of hard work by many enthusiastic individuals, for free
The only thing we kindly ask in return is that you cite our papers,
We deeply appreciate it, if you show your appreciation for ORCA by not just citing the generic ORCA reference.

Please note that relegating all ORCA citations to the supporting information does *not* help us.
SI sections are not indexed - citations you put there will not count into any citation statistics
But we need these citations in order to attract the funding resources that allow us to do what we are doing

Therefore, if you are a happy ORCA user, please consider citing a few of the papers listed below in the main body of your paper

In addition to the list printed below, the program has created the file Ibuprofen\Ibuprofen_B3LYP_6-311+G\Ibuprofen_B3LYP_6-311+G.orcainp.bibtex that contains the list in bibtex format
You can import this file easily into all common literature databanks and citation aid programs


List of essential papers. We consider these as the minimum necessary citations

  1. Neese,F.
     Software update: the ORCA program system, version 5.0
     WIRES Comput. Molec. Sci., 2022 12(1)e1606
     doi.org/10.1002/wcms.1606

List of papers to cite with high priority. The work reported in these papers was absolutely
necessary for this run to complete.
Our perspective: the developers of density functionals and basis sets usually get cited in chemistry papers
Good! But without the algorithms to do something with them, the functionals or basis sets would not do anything.
Hence, in our opinion, the algorithm design and method developments papers are equally worthy of getting cited

  1. Neese,F.
     An improvement of the resolution of the identity approximation for the formation of the Coulomb matrix
     J. Comp. Chem., 2003 24(14)1740-1747
     doi.org/10.1002/jcc.10318
  2. Neese,F.; Wennmohs,F.; Hansen,A.; Becker,U.
     Efficient, approximate and parallel Hartree-Fock and hybrid DFT calculations. A 'chain-of-spheres' algorithm for the Hartree-Fock exchange
     Chem. Phys., 2009 356(1-3)98-109
     doi.org/10.1016/j.chemphys.2008.10.036
  3. Garcia-Rates,M.; Neese,F.
     Effect of the Solute Cavity on the Solvation Energy and its Derivatives within the Framework of the Gaussian Charge Scheme
     J. Comput. Chem., 2020 41 922-939
     doi.org/10.1002/jcc.26139
  4. Helmich-Paris,B.; de Souza,B.; Neese,F.; Izsák,R.
     An improved chain of spheres for exchange algorithm
     J. Chem. Phys., 2021 155 104109
     doi.org/doi: 10.1063/5.0058766.
  5. Neese,F.
     The SHARK Integral Generation and Digestion System
     J. Comp. Chem., 2022  1-16
     doi.org/10.1002/jcc.26942

List of suggested additional citations. These are papers that are important in the 'surrounding' of 
of this run, or papers that preceded the highly important papers. If you like your results we are grateful for a citation.

  1. Izsak,R.; Neese,F.
     An overlap fitted chain of spheres exchange method
     J. Chem. Phys., 2011 135 144105
     doi.org/10.1063/1.3646921
  2. Izsak,R.; Hansen,A.; Neese,F.
     The resolution of identity and chain of spheres approximations for the LPNO-CCSD singles Fock term
     Molec. Phys., 2012 110 2413-2417
     doi.org/10.1080/00268976.2012.687466
  3. Neese,F.
     The ORCA program system
     WIRES Comput. Molec. Sci., 2012 2(1)73-78
     doi.org/10.1002/wcms.81
  4. Izsak,R.; Neese,F.; Klopper,W.
     Robust fitting techniques in the chain of spheres approximation to the Fock exchange: The role of the complementary space
     J. Chem. Phys., 2013 139 
     doi.org/10.1063/1.4819264
  5. Neese,F.
     Software update: the ORCA program system, version 4.0
     WIRES Comput. Molec. Sci., 2018 8(1)1-6
     doi.org/10.1002/wcms.1327
  6. Neese,F.; Wennmohs,F.; Becker,U.; Riplinger,C.
     The ORCA quantum chemistry program package
     J. Chem. Phys., 2020 152 Art. No. L224108
     doi.org/10.1063/5.0004608

List of optional additional citations

  1. Neese,F.
     Approximate second-order SCF convergence for spin unrestricted wavefunctions
     Chem. Phys. Lett., 2000 325(1-3)93-98
     doi.org/10.1016/s0009-2614(00)00662-x

Timings for individual modules:

Sum of individual times          ...     6355.417 sec (= 105.924 min)
Startup calculation              ...       62.060 sec (=   1.034 min)   1.0 %
SCF iterations                   ...     3263.353 sec (=  54.389 min)  51.3 %
Property calculations            ...        0.112 sec (=   0.002 min)   0.0 %
SCF Gradient evaluation          ...     3029.650 sec (=  50.494 min)  47.7 %
Geometry relaxation              ...        0.242 sec (=   0.004 min)   0.0 %
                             ****ORCA TERMINATED NORMALLY****
TOTAL RUN TIME: 0 days 1 hours 45 minutes 57 seconds 776 msec
