
                                 *****************
                                 * O   R   C   A *
                                 *****************

                                            #,                                       
                                            ###                                      
                                            ####                                     
                                            #####                                    
                                            ######                                   
                                           ########,                                 
                                     ,,################,,,,,                         
                               ,,#################################,,                 
                          ,,##########################################,,             
                       ,#########################################, ''#####,          
                    ,#############################################,,   '####,        
                  ,##################################################,,,,####,       
                ,###########''''           ''''###############################       
              ,#####''   ,,,,##########,,,,          '''####'''          '####       
            ,##' ,,,,###########################,,,                        '##       
           ' ,,###''''                  '''############,,,                           
         ,,##''                                '''############,,,,        ,,,,,,###''
      ,#''                                            '''#######################'''  
     '                                                          ''''####''''         
             ,#######,   #######,   ,#######,      ##                                
            ,#'     '#,  ##    ##  ,#'     '#,    #''#        ,####,   ,####,        
            ##       ##  ##   ,#'  ##            #'  '#       #'       #'  '#        
            ##       ##  #######   ##           ,######,      #####,   #    #        
            '#,     ,#'  ##    ##  '#,     ,#' ,#      #,     #,   #   #,  ,#        
             '#######'   ##     ##  '#######'  #'      '#     '####' # '####'        



                #########################################################
                #                        -***-                          #
                #          Department of theory and spectroscopy        #
                #                                                       #
                #                      Frank Neese                      #
                #                                                       #
                #     Directorship, Architecture, Infrastructure        #
                #                    SHARK, DRIVERS                     #
                #        Core code/Algorithms in most modules           #
                #                                                       #
                #        Max Planck Institute fuer Kohlenforschung      #
                #                Kaiser Wilhelm Platz 1                 #
                #                 D-45470 Muelheim/Ruhr                 #
                #                      Germany                          #
                #                                                       #
                #                  All rights reserved                  #
                #                        -***-                          #
                #########################################################


                         Program Version 6.0.0  -   RELEASE   -


 With contributions from (in alphabetic order):
   Daniel Aravena         : Magnetic Suceptibility
   Michael Atanasov       : Ab Initio Ligand Field Theory (pilot matlab implementation)
   Alexander A. Auer      : GIAO ZORA, VPT2 properties, NMR spectrum
   Ute Becker             : All parallelization in ORCA, NUMFREQ, NUMCALC
   Giovanni Bistoni       : ED, misc. LED, open-shell LED, HFLD
   Martin Brehm           : Molecular dynamics
   Dmytro Bykov           : pre 5.0 version of the SCF Hessian
   Marcos Casanova-Páez   : Triplet and SCS-CIS(D). UHF-(DLPNO)-IP/EA/STEOM-CCSD. UHF-CVS-IP/STEOM-CCSD
   Vijay G. Chilkuri      : MRCI spin determinant printing, contributions to CSF-ICE
   Pauline Colinet        : FMM embedding
   Dipayan Datta          : RHF DLPNO-CCSD density
   Achintya Kumar Dutta   : EOM-CC, STEOM-CC
   Nicolas Foglia         : Exact transition moments, OPA infrastructure, MCD improvements
   Dmitry Ganyushin       : Spin-Orbit,Spin-Spin,Magnetic field MRCI
   Miquel Garcia          : C-PCM and meta-GGA Hessian, CCSD/C-PCM, Gaussian charge scheme
   Tiago L. C. Gouveia    : GS-ROHF, GS-ROCIS
   Yang Guo               : DLPNO-NEVPT2, F12-NEVPT2, CIM, IAO-localization
   Andreas Hansen         : Spin unrestricted coupled pair/coupled cluster methods
   Ingolf Harden          : AUTO-CI MPn and infrastructure 
   Benjamin Helmich-Paris : MC-RPA, TRAH-(SCF,CASSCF), AVAS, COSX integrals, SCF dyn. polar.
   Lee Huntington         : MR-EOM, pCC
   Robert Izsak           : Overlap fitted RIJCOSX, COSX-SCS-MP3, EOM
   Riya Kayal             : Wick's Theorem for AUTO-CI, AUTO-CI UHF-CCSDT
   Emily Kempfer          : AUTO-CI, RHF CISDT and CCSDT
   Christian Kollmar      : KDIIS, OOCD, Brueckner-CCSD(T), CCSD density, CASPT2, CASPT2-K, improved NEVPT2
   Axel Koslowski         : Symmetry handling
   Simone Kossmann        : Meta GGA functionals, TD-DFT gradient, OOMP2, (MP2 Hessian; deprecated post 5.0)
   Lucas Lang             : DCDCAS
   Marvin Lechner         : AUTO-CI (C++ implementation), FIC-MRCC
   Spencer Leger          : CASSCF response
   Dagmar Lenk            : GEPOL surface, SMD, ORCA-2-JSON
   Dimitrios Liakos       : Extrapolation schemes; Compound Job, initial MDCI parallelization
   Dimitrios Manganas     : Further ROCIS development; embedding schemes. LFT, Crystal Embedding
   Dimitrios Pantazis     : SARC Basis sets
   Anastasios Papadopoulos: AUTO-CI, single reference methods and gradients
   Taras Petrenko         : pre 6.0 DFT Hessian and TD-DFT gradient, (ASA, deprecated), ECA, 1-Electron XAS/XES, NRVS
   Peter Pinski           : DLPNO-MP2, DLPNO-MP2 Gradient
   Christoph Reimann      : Effective Core Potentials
   Marius Retegan         : Local ZFS, SOC
   Christoph Riplinger    : Optimizer, TS searches, QM/MM, DLPNO-CCSD(T), (RO)-DLPNO pert. Triples
   Michael Roemelt        : Original ROCIS implementation
   Masaaki Saitow         : Open-shell DLPNO-CCSD energy and density
   Barbara Sandhoefer     : DKH picture change effects
   Kantharuban Sivalingam : CASSCF convergence/infrastructure, NEVPT2 and variants, FIC-MRCI
   Bernardo de Souza      : ESD, SOC TD-DFT
   Georgi Stoychev        : AutoAux, RI-MP2 NMR, DLPNO-MP2 response, X2C
   Van Anh Tran           : RI-MP2 g-tensors
   Willem Van den Heuvel  : Paramagnetic NMR
   Zikuan Wang            : NOTCH, Electric field optimization 
   Frank Wennmohs         : Technical directorship and infrastructure
   Hang Xu                : AUTO-CI-Response properties 


 We gratefully acknowledge several colleagues who have allowed us to
 interface, adapt or use parts of their codes:
   Stefan Grimme, W. Hujo, H. Kruse, P. Pracht,  : VdW corrections, initial TS optimization,
                  C. Bannwarth, S. Ehlert,         DFT functionals, gCP, sTDA/sTD-DF
                  L. Wittmann, M. Mueller
   Ed Valeev, F. Pavosevic, A. Kumar             : LibInt (2-el integral package), F12 methods
   Garnet Chan, S. Sharma, J. Yang, R. Olivares  : DMRG
   Ulf Ekstrom                                   : XCFun DFT Library
   Mihaly Kallay                                 : mrcc  (arbitrary order and MRCC methods)
   Frank Weinhold                                : gennbo (NPA and NBO analysis)
   Simon Mueller                                 : openCOSMO-RS
   Christopher J. Cramer and Donald G. Truhlar   : smd solvation model
   Lars Goerigk                                  : TD-DFT with DH, B97 family of functionals
   V. Asgeirsson, H. Jonsson                     : NEB implementation
   FAccTs GmbH                                   : IRC, NEB, NEB-TS, DLPNO-Multilevel, CI-OPT
                                                   MM, QMMM, 2- and 3-layer-ONIOM, Crystal-QMMM,
                                                   LR-CPCM, SF, NACMEs, symmetry and pop. for TD-DFT,
                                                   nearIR, NL-DFT gradient (VV10), updates on ESD,
                                                   ML-optimized integration grids, MBIS, APM,
                                                   GOAT, DOCKER, SOLVATOR, interface openCOSMO-RS
   S Lehtola, MJT Oliveira, MAL Marques          : LibXC Library
   Liviu Ungur et al                             : ANISO software


 Your calculation uses the libint2 library for the computation of 2-el integrals
 For citations please refer to: http://libint.valeyev.net

 Your ORCA version has been built with support for libXC version: 6.2.2
 For citations please refer to: https://libxc.gitlab.io

 This ORCA versions uses:
   CBLAS   interface :  Fast vector & matrix operations
   LAPACKE interface :  Fast linear algebra routines
   Shared memory     :  Shared parallel matrices


Warning: RI is on but no J-basis has been assigned. Assigning Def2/J (nothing to worry about!)
================================================================================

----- Orbital basis set information -----
Your calculation utilizes the basis: STO-3G
   H-Ne       : W. J. Hehre, R. F. Stewart and J. A. Pople, J. Chem. Phys. 2657 (1969).
   Na-Ar      : W. J. Hehre, R. Ditchfield, R. F. Stewart and J. A. Pople, J. Chem. Phys. 2769 (1970).
   K,Ca,Ga-Kr : W. J. Pietro, B. A. Levy, W. J. Hehre and R. F. Stewart, J. Am. Chem. Soc. 19, 2225 (1980).
   Sc-Zn,Y-Cd : W. J. Pietro and W. J. Hehre, J. Comp. Chem. 4, 241 (1983).

----- AuxJ basis set information -----
Your calculation utilizes the auxiliary basis: def2/J
   F. Weigend, Phys. Chem. Chem. Phys. 8, 1057 (2006).

================================================================================
                                        WARNINGS
                       Please study these warnings very carefully!
================================================================================

WARNING: Old DensityContainer found on disk!
         Will remove this file - 
         If you want to keep old densities, please start your calculation with a different basename. 

INFO   : Checking CIS options ...

WARNING: CIS/ROCIS methods need fully converged wavefunctions
  ===> : Setting SCFConvForced true
         You can overwrite this default with %scf ConvForced false 


================================================================================
                                       INPUT FILE
================================================================================
NAME = Diclofenac\Diclofenac_PBE_STO-3G\Diclofenac_PBE_STO-3G.orcainp.xyz
|  1> # ORCA xyz input file 
|  2> # 
|  3> !PBE STO-3G CPCM(WATER) LARGEPRINT 
|  4> %tddft
|  5>     NRoots 30
|  6>     MaxDim 5
|  7> end
|  8> * xyz 0 1
|  9>   O           3.04488740681996      1.36772895334793     -3.17402691300511
| 10>   C           2.90849063007624      0.00083048707156     -2.92134625699026
| 11>   O           2.43034336752008     -0.79489187886547     -3.78234882638485
| 12>   C           3.35380623981341     -0.48832836301486     -1.44625584640507
| 13>   C           4.82856294487282     -0.23706290153335     -1.10957981368317
| 14>   C           5.75176743279067     -1.31122328619688     -1.00125399903064
| 15>   C           7.11135305196669     -1.08145724114358     -0.69107236008156
| 16>   C           7.57669180854948      0.23505721220210     -0.47037173417914
| 17>   C           6.68173692600965      1.32534273064966     -0.56551337972468
| 18>   C           5.32643288194022      1.08704860059982     -0.89129344411170
| 19>   N           4.32017263353475      2.19841198757204     -1.05336913573106
| 20>   C           4.83430552587314      3.57809975231273     -1.07500259236804
| 21>   C           5.64361187575243      4.09307716227243     -2.13579869589593
| 22>   Cl          6.15345884038683      2.99349881546762     -3.47592920278551
| 23>   C           6.04564996790506      5.45004594089940     -2.17410619105940
| 24>   C           5.61920905602465      6.33528946920158     -1.15640932644034
| 25>   C           4.79303321797935      5.87658615428946     -0.10298923216671
| 26>   C           4.41737805264326      4.51512926116164     -0.07694366374436
| 27>   Cl          3.35384655851048      3.89314990634100      1.25428317095389
| 28>   H           3.53144576568445      1.77586340645090     -2.29689512499212
| 29>   H           3.14676623016281     -1.57502475835581     -1.38540305901626
| 30>   H           2.69918299609937      0.02794880233155     -0.70953358371736
| 31>   H           5.38858515460090     -2.34187467914290     -1.16331819177534
| 32>   H           7.80883600743657     -1.93427245696433     -0.61545386246905
| 33>   H           8.63586973393915      0.41903300139398     -0.21859259518878
| 34>   H           7.03198113734832      2.35673040895894     -0.38648669651046
| 35>   H           3.64648532214151      2.16553603715907     -0.22128300643711
| 36>   H           6.67806251802686      5.80636726952940     -3.00652195592887
| 37>   H           5.92705772879852      7.39572491390597     -1.18869098159927
| 38>   H           4.44732898679225      6.56083529209836      0.69199650046827
| 39> *
| 40> 
| 41>                          ****END OF INPUT****
================================================================================

                       ****************************
                       * Single Point Calculation *
                       ****************************

---------------------------------
CARTESIAN COORDINATES (ANGSTROEM)
---------------------------------
  O      3.044887    1.367729   -3.174027
  C      2.908491    0.000830   -2.921346
  O      2.430343   -0.794892   -3.782349
  C      3.353806   -0.488328   -1.446256
  C      4.828563   -0.237063   -1.109580
  C      5.751767   -1.311223   -1.001254
  C      7.111353   -1.081457   -0.691072
  C      7.576692    0.235057   -0.470372
  C      6.681737    1.325343   -0.565513
  C      5.326433    1.087049   -0.891293
  N      4.320173    2.198412   -1.053369
  C      4.834306    3.578100   -1.075003
  C      5.643612    4.093077   -2.135799
  Cl     6.153459    2.993499   -3.475929
  C      6.045650    5.450046   -2.174106
  C      5.619209    6.335289   -1.156409
  C      4.793033    5.876586   -0.102989
  C      4.417378    4.515129   -0.076944
  Cl     3.353847    3.893150    1.254283
  H      3.531446    1.775863   -2.296895
  H      3.146766   -1.575025   -1.385403
  H      2.699183    0.027949   -0.709534
  H      5.388585   -2.341875   -1.163318
  H      7.808836   -1.934272   -0.615454
  H      8.635870    0.419033   -0.218593
  H      7.031981    2.356730   -0.386487
  H      3.646485    2.165536   -0.221283
  H      6.678063    5.806367   -3.006522
  H      5.927058    7.395725   -1.188691
  H      4.447329    6.560835    0.691997

----------------------------
CARTESIAN COORDINATES (A.U.)
----------------------------
  NO LB      ZA    FRAG     MASS         X           Y           Z
   0 O     8.0000    0    15.999    5.754003    2.584633   -5.998042
   1 C     6.0000    0    12.011    5.496251    0.001569   -5.520544
   2 O     8.0000    0    15.999    4.592683   -1.502128   -7.147603
   3 C     6.0000    0    12.011    6.337775   -0.922807   -2.733027
   4 C     6.0000    0    12.011    9.124662   -0.447984   -2.096802
   5 C     6.0000    0    12.011   10.869265   -2.477853   -1.892096
   6 C     6.0000    0    12.011   13.438510   -2.043658   -1.305937
   7 C     6.0000    0    12.011   14.317873    0.444194   -0.888874
   8 C     6.0000    0    12.011   12.626653    2.504535   -1.068665
   9 C     6.0000    0    12.011   10.065499    2.054224   -1.684301
  10 N     7.0000    0    14.007    8.163943    4.154397   -1.990579
  11 C     6.0000    0    12.011    9.135513    6.761629   -2.031460
  12 C     6.0000    0    12.011   10.664881    7.734795   -4.036075
  13 Cl   17.0000    0    35.453   11.628352    5.656893   -6.568554
  14 C     6.0000    0    12.011   11.424623   10.299094   -4.108465
  15 C     6.0000    0    12.011   10.618766   11.971962   -2.185297
  16 C     6.0000    0    12.011    9.057520   11.105138   -0.194621
  17 C     6.0000    0    12.011    8.347635    8.532358   -0.145402
  18 Cl   17.0000    0    35.453    6.337851    7.356987    2.370252
  19 H     1.0000    0     1.008    6.673465    3.355895   -4.340503
  20 H     1.0000    0     1.008    5.946526   -2.976365   -2.618032
  21 H     1.0000    0     1.008    5.100717    0.052816   -1.340824
  22 H     1.0000    0     1.008   10.182950   -4.425502   -2.198353
  23 H     1.0000    0     1.008   14.756561   -3.655245   -1.163039
  24 H     1.0000    0     1.008   16.319429    0.791858   -0.413080
  25 H     1.0000    0     1.008   13.288519    4.453575   -0.730354
  26 H     1.0000    0     1.008    6.890859    4.092270   -0.418164
  27 H     1.0000    0     1.008   12.619709   10.972444   -5.681503
  28 H     1.0000    0     1.008   11.200516   13.975895   -2.246300
  29 H     1.0000    0     1.008    8.404234   12.398182    1.307684

--------------------------------
INTERNAL COORDINATES (ANGSTROEM)
--------------------------------
 O      0   0   0     0.000000000000     0.00000000     0.00000000
 C      1   0   0     1.396732977966     0.00000000     0.00000000
 O      2   1   0     1.266145454854   121.93072248     0.00000000
 C      2   1   3     1.616624289157   115.73995890   181.93543822
 C      4   2   1     1.533425062486   114.56194027   298.83160457
 C      5   4   2     1.420514533756   121.19014890   250.31063545
 C      6   5   4     1.413321669144   121.26531151   179.99789369
 C      7   6   5     1.413668713143   120.15347248     0.52986072
 C      8   7   6     1.413760476968   119.95456493   359.73400131
 C      9   8   7     1.414130755849   119.48843108   359.55035372
 N     10   9   8     1.507964454235   122.69099510   181.93439981
 C     11  10   9     1.472528086525   117.33045592     9.63654496
 C     12  11  10     1.430198193952   123.08224301    67.64438322
 Cl    13  12  11     1.806921759127   119.38342190   356.29756177
 C     13  12  11     1.415791777733   121.72689844   175.54606318
 C     15  13  12     1.414643016447   119.65036486   358.68489989
 C     16  15  13     1.415156931757   120.57480072   359.88459241
 C     17  16  15     1.412572138591   118.77605803     0.84794843
 Cl    18  17  16     1.813869466708   119.99692741   180.24709074
 H      1   2   3     1.082900245606   105.43731142   183.48175054
 H      4   2   1     1.107915918730   107.18307243   177.54953353
 H      4   2   1     1.112579612886   107.56080104    61.64236542
 H      6   5   4     1.104720989003   118.72648746   359.91744182
 H      7   6   5     1.104307213907   119.80623984   180.16252051
 H      8   7   6     1.104127575723   120.43396396   179.43284270
 H      9   8   7     1.103848768558   120.58390680   179.45819163
 H     11  10   9     1.071122191074   108.27540358   251.04145608
 H     15  13  12     1.104457572020   119.48588853   179.47659080
 H     16  15  13     1.104688301275   119.71428987   180.38266133
 H     17  16  15     1.104405094676   121.18162774   180.51944941

---------------------------
INTERNAL COORDINATES (A.U.)
---------------------------
 O      0   0   0     0.000000000000     0.00000000     0.00000000
 C      1   0   0     2.639442810573     0.00000000     0.00000000
 O      2   1   0     2.392668155382   121.93072248     0.00000000
 C      2   1   3     3.054977167953   115.73995890   181.93543822
 C      4   2   1     2.897753414990   114.56194027   298.83160457
 C      5   4   2     2.684383438054   121.19014890   250.31063545
 C      6   5   4     2.670790893818   121.26531151   179.99789369
 C      7   6   5     2.671446711933   120.15347248     0.52986072
 C      8   7   6     2.671620120431   119.95456493   359.73400131
 C      9   8   7     2.672319846110   119.48843108   359.55035372
 N     10   9   8     2.849639838193   122.69099510   181.93439981
 C     11  10   9     2.782674808040   117.33045592     9.63654496
 C     12  11  10     2.702682903798   123.08224301    67.64438322
 Cl    13  12  11     3.414587270172   119.38342190   356.29756177
 C     13  12  11     2.675458722572   121.72689844   175.54606318
 C     15  13  12     2.673287878349   119.65036486   358.68489989
 C     16  15  13     2.674259037542   120.57480072   359.88459241
 C     17  16  15     2.669374486344   118.77605803     0.84794843
 Cl    18  17  16     3.427716534760   119.99692741   180.24709074
 H      1   2   3     2.046384894551   105.43731142   183.48175054
 H      4   2   1     2.093657665812   107.18307243   177.54953353
 H      4   2   1     2.102470770538   107.56080104    61.64236542
 H      6   5   4     2.087620123609   118.72648746   359.91744182
 H      7   6   5     2.086838201998   119.80623984   180.16252051
 H      8   7   6     2.086498735027   120.43396396   179.43284270
 H      9   8   7     2.085971865841   120.58390680   179.45819163
 H     11  10   9     2.024127597096   108.27540358   251.04145608
 H     15  13  12     2.087122337653   119.48588853   179.47659080
 H     16  15  13     2.087558352756   119.71428987   180.38266133
 H     17  16  15     2.087023169845   121.18162774   180.51944941

---------------------
BASIS SET INFORMATION
---------------------
There are 5 groups of distinct atoms

 Group   1 Type O   : 6s3p contracted to 2s1p pattern {33/3}
 Group   2 Type C   : 6s3p contracted to 2s1p pattern {33/3}
 Group   3 Type N   : 6s3p contracted to 2s1p pattern {33/3}
 Group   4 Type Cl  : 9s6p contracted to 3s2p pattern {333/33}
 Group   5 Type H   : 3s contracted to 1s pattern {3}

Atom   0O    basis set group =>   1
Atom   1C    basis set group =>   2
Atom   2O    basis set group =>   1
Atom   3C    basis set group =>   2
Atom   4C    basis set group =>   2
Atom   5C    basis set group =>   2
Atom   6C    basis set group =>   2
Atom   7C    basis set group =>   2
Atom   8C    basis set group =>   2
Atom   9C    basis set group =>   2
Atom  10N    basis set group =>   3
Atom  11C    basis set group =>   2
Atom  12C    basis set group =>   2
Atom  13Cl   basis set group =>   4
Atom  14C    basis set group =>   2
Atom  15C    basis set group =>   2
Atom  16C    basis set group =>   2
Atom  17C    basis set group =>   2
Atom  18Cl   basis set group =>   4
Atom  19H    basis set group =>   5
Atom  20H    basis set group =>   5
Atom  21H    basis set group =>   5
Atom  22H    basis set group =>   5
Atom  23H    basis set group =>   5
Atom  24H    basis set group =>   5
Atom  25H    basis set group =>   5
Atom  26H    basis set group =>   5
Atom  27H    basis set group =>   5
Atom  28H    basis set group =>   5
Atom  29H    basis set group =>   5

-------------------------
BASIS SET IN INPUT FORMAT
-------------------------

 # Basis set for element : H 
 NewGTO H 
 S 3 
   1       3.4252509100      0.1543289707
   2       0.6239137300      0.5353281424
   3       0.1688554000      0.4446345420
  end;

 # Basis set for element : C 
 NewGTO C 
 S 3 
   1      71.6168370000      0.1543289700
   2      13.0450960000      0.5353281400
   3       3.5305122000      0.4446345400
 S 3 
   1       2.9412494000     -0.0999672301
   2       0.6834831000      0.3995128303
   3       0.2222899000      0.7001154705
 P 3 
   1       2.9412494000      0.1559162721
   2       0.6834831000      0.6076837282
   3       0.2222899000      0.3919573953
  end;

 # Basis set for element : N 
 NewGTO N 
 S 3 
   1      99.1061690000      0.1543289703
   2      18.0523120000      0.5353281411
   3       4.8856602000      0.4446345409
 S 3 
   1       3.7804559000     -0.0999672284
   2       0.8784966000      0.3995128238
   3       0.2857144000      0.7001154591
 P 3 
   1       3.7804559000      0.1559162685
   2       0.8784966000      0.6076837143
   3       0.2857144000      0.3919573863
  end;

 # Basis set for element : O 
 NewGTO O 
 S 3 
   1     130.7093200000      0.1543289687
   2      23.8088610000      0.5353281356
   3       6.4436083000      0.4446345363
 S 3 
   1       5.0331513000     -0.0999672287
   2       1.1695961000      0.3995128246
   3       0.3803890000      0.7001154606
 P 3 
   1       5.0331513000      0.1559162685
   2       1.1695961000      0.6076837141
   3       0.3803890000      0.3919573862
  end;

 # Basis set for element : Cl
 NewGTO Cl
 S 3 
   1     601.3456136000      0.1543289673
   2     109.5358542000      0.5353281423
   3      29.6446768600      0.4446345422
 S 3 
   1      38.9604188900     -0.0999672292
   2       9.0535634770      0.3995128261
   3       2.9444998340      0.7001154689
 P 3 
   1      38.9604188900      0.1559162750
   2       9.0535634770      0.6076837186
   3       2.9444998340      0.3919573931
 S 3 
   1       2.1293864950     -0.2196203690
   2       0.5940934274      0.2255954336
   3       0.2325241410      0.9003984260
 P 3 
   1       2.1293864950      0.0105876043
   2       0.5940934274      0.5951670053
   3       0.2325241410      0.4620010120
  end;

---------------------------------
AUXILIARY/J BASIS SET INFORMATION
---------------------------------
There are 5 groups of distinct atoms

 Group   1 Type O   : 12s5p4d2f1g contracted to 6s4p3d1f1g pattern {711111/2111/211/2/1}
 Group   2 Type C   : 12s5p4d2f1g contracted to 6s4p3d1f1g pattern {711111/2111/211/2/1}
 Group   3 Type N   : 12s5p4d2f1g contracted to 6s4p3d1f1g pattern {711111/2111/211/2/1}
 Group   4 Type Cl  : 14s5p5d2f1g contracted to 8s4p3d1f1g pattern {71111111/2111/311/2/1}
 Group   5 Type H   : 5s2p1d contracted to 3s1p1d pattern {311/2/1}

Atom   0O    basis set group =>   1
Atom   1C    basis set group =>   2
Atom   2O    basis set group =>   1
Atom   3C    basis set group =>   2
Atom   4C    basis set group =>   2
Atom   5C    basis set group =>   2
Atom   6C    basis set group =>   2
Atom   7C    basis set group =>   2
Atom   8C    basis set group =>   2
Atom   9C    basis set group =>   2
Atom  10N    basis set group =>   3
Atom  11C    basis set group =>   2
Atom  12C    basis set group =>   2
Atom  13Cl   basis set group =>   4
Atom  14C    basis set group =>   2
Atom  15C    basis set group =>   2
Atom  16C    basis set group =>   2
Atom  17C    basis set group =>   2
Atom  18Cl   basis set group =>   4
Atom  19H    basis set group =>   5
Atom  20H    basis set group =>   5
Atom  21H    basis set group =>   5
Atom  22H    basis set group =>   5
Atom  23H    basis set group =>   5
Atom  24H    basis set group =>   5
Atom  25H    basis set group =>   5
Atom  26H    basis set group =>   5
Atom  27H    basis set group =>   5
Atom  28H    basis set group =>   5
Atom  29H    basis set group =>   5

-------------------------------------
AUXILIARY/J BASIS SET IN INPUT FORMAT
-------------------------------------

 # Auxiliary/J basis set for element : H 
 NewAuxJGTO H 
 S 3 
   1      15.6752927000      0.1007184237
   2       3.6063578000      0.3404257499
   3       1.2080016000      0.6491996172
 S 1 
   1       0.4726794000      1.0000000000
 S 1 
   1       0.2018100000      1.0000000000
 P 2 
   1       2.0281365000      0.5596620919
   2       0.5358730000      0.5596620919
 D 1 
   1       2.2165124000      1.0000000000
  end;

 # Auxiliary/J basis set for element : C 
 NewAuxJGTO C 
 S 7 
   1    1861.0916331000      0.0134602335
   2     642.9939764000      0.0299160374
   3     235.1105725000      0.1008649584
   4      90.7028894000      0.2370970548
   5      36.7794552000      0.3924037254
   6      15.6046273000      0.3195862154
   7       6.8907294000      0.0530104441
 S 1 
   1       3.1478850000     -1.0000000000
 S 1 
   1       1.4777287000      1.0000000000
 S 1 
   1       0.7076466000      1.0000000000
 S 1 
   1       0.3430122000      1.0000000000
 S 1 
   1       0.1669453000      1.0000000000
 P 2 
   1      13.5472892000     -0.6769313712
   2       5.4669419000     -0.3779500978
 P 1 
   1       2.1751721000      1.0000000000
 P 1 
   1       0.8582194000      1.0000000000
 P 1 
   1       0.3376720000      1.0000000000
 D 2 
   1       5.9287253000     -0.3533329857
   2       1.9809209000     -0.7456525731
 D 1 
   1       0.8055417000     -1.0000000000
 D 1 
   1       0.3531244000     -1.0000000000
 F 2 
   1       1.6755626000      0.6311076882
   2       0.5997536000      0.4968166032
 G 1 
   1       1.0024600000     -1.0000000000
  end;

 # Auxiliary/J basis set for element : N 
 NewAuxJGTO N 
 S 7 
   1    2542.9401785000      0.0128431329
   2    1029.5472946000      0.0206655120
   3     424.9053546000      0.0652200677
   4     178.4573708000      0.1617388940
   5      76.1362742000      0.3094256941
   6      32.9338653000      0.3918849307
   7      14.4155436000      0.1822470660
 S 1 
   1       6.3718891000     -1.0000000000
 S 1 
   1       2.8381742000      1.0000000000
 S 1 
   1       1.2711793000      1.0000000000
 S 1 
   1       0.5712407000      1.0000000000
 S 1 
   1       0.2569887000      1.0000000000
 P 2 
   1      17.8975990000     -1.0974070137
   2       6.5346319000      0.1380055963
 P 1 
   1       2.3523645000      1.0000000000
 P 1 
   1       0.8397377000      1.0000000000
 P 1 
   1       0.2989335000      1.0000000000
 D 2 
   1       7.6909870000      0.1770780943
   2       2.3044972000      0.8918319220
 D 1 
   1       0.8403987000      1.0000000000
 D 1 
   1       0.3303797000      1.0000000000
 F 2 
   1       2.3331076000      0.6223178877
   2       0.8446137000      0.5036714203
 G 1 
   1       1.4037700000     -1.0000000000
  end;

 # Auxiliary/J basis set for element : O 
 NewAuxJGTO O 
 S 7 
   1    2876.8216605000      0.0168151159
   2    1004.7443032000      0.0340137548
   3     369.7579954000      0.1194951309
   4     142.9442404000      0.2664627624
   5      57.8366425000      0.4202764046
   6      24.3864983000      0.2765077335
   7      10.6622662000      0.0057008815
 S 1 
   1       4.8070437000     -1.0000000000
 S 1 
   1       2.2210770000      1.0000000000
 S 1 
   1       1.0447795000      1.0000000000
 S 1 
   1       0.4968425000      1.0000000000
 S 1 
   1       0.2371384000      1.0000000000
 P 2 
   1      64.2613382000     -0.2731534179
   2      16.3006076000     -0.8168011598
 P 1 
   1       4.3550542000      1.0000000000
 P 1 
   1       1.2019554000      1.0000000000
 P 1 
   1       0.3354196000      1.0000000000
 D 2 
   1       9.2146611000     -0.4661230638
   2       2.8435251000     -0.6600908911
 D 1 
   1       0.9955759000     -1.0000000000
 D 1 
   1       0.3649441000     -1.0000000000
 F 2 
   1       2.6420115000      0.5931563945
   2       0.7345613000      0.5931563945
 G 1 
   1       1.3931000000     -1.0000000000
  end;

 # Auxiliary/J basis set for element : Cl
 NewAuxJGTO Cl
 S 7 
   1    8044.2766240000      0.0309054740
   2    2924.5123954000      0.0600734063
   3    1110.8168739000      0.1862207460
   4     439.9050761000      0.3715503251
   5     181.1987287000      0.4220785347
   6      77.4148302000      0.0994388367
   7      34.1977273000     -0.0596902748
 S 1 
   1      15.5648397000      1.0000000000
 S 1 
   1       7.2707873000      1.0000000000
 S 1 
   1       3.4711900000     -1.0000000000
 S 1 
   1       1.6860808000     -1.0000000000
 S 1 
   1       0.8293125000      1.0000000000
 S 1 
   1       0.4110124000      1.0000000000
 S 1 
   1       0.2042190000      1.0000000000
 P 2 
   1      12.2564993000      1.4910316311
   2       4.8922575000     -1.4908224419
 P 1 
   1       1.9265460000      1.0000000000
 P 1 
   1       0.7525989000     -1.0000000000
 P 1 
   1       0.2932189000     -1.0000000000
 D 3 
   1      28.4370504000     -1.0829567244
   2       7.2772298000      0.5502349187
   3       2.3111621000     -0.5567798939
 D 1 
   1       0.8580943000     -1.0000000000
 D 1 
   1       0.3376227000     -1.0000000000
 F 2 
   1       1.2035685000      0.5557691438
   2       0.4700000000      0.5557691438
 G 1 
   1       0.7521100000     -1.0000000000
  end;


Checking for AutoStart:
The File: Diclofenac\Diclofenac_PBE_STO-3G\Diclofenac_PBE_STO-3G.orcainp.gbw exists
Trying to determine its content:
     ... Fine, the file contains calculation information
     ... Fine, the calculation information was read
     ... Fine, the file contains a basis set
     ... Fine, the basis set was read
     ... Fine, the file contains a geometry
     ... Fine, the geometry was read
     ... Fine, the file contains a set of orbitals
     ... Fine, the orbitals can be read
     => possible old guess file was deleted
     => GBW file was renamed to GES file
     => GES file is set as startup file
     => Guess is set to MORead
     ... now leaving AutoStart

------------------------------------------------------------------------------
                             ORCA STARTUP CALCULATIONS
                           -- RI-GTO INTEGRALS CHOSEN --
------------------------------------------------------------------------------
------------------------------------------------------------------------------
                   ___                                                        
                  /   \      - P O W E R E D   B Y -                         
                 /     \                                                     
                 |  |  |   _    _      __       _____    __    __             
                 |  |  |  | |  | |    /  \     |  _  \  |  |  /  |          
                  \  \/   | |  | |   /    \    | | | |  |  | /  /          
                 / \  \   | |__| |  /  /\  \   | |_| |  |  |/  /          
                |  |  |   |  __  | /  /__\  \  |    /   |      \           
                |  |  |   | |  | | |   __   |  |    \   |  |\   \          
                \     /   | |  | | |  |  |  |  | |\  \  |  | \   \       
                 \___/    |_|  |_| |__|  |__|  |_| \__\ |__|  \__/        
                                                                              
                      - O R C A' S   B I G   F R I E N D -                    
                                      &                                       
                       - I N T E G R A L  F E E D E R -                       
                                                                              
 v1 FN, 2020, v2 2021, v3 2022-2024                                           
------------------------------------------------------------------------------


----------------------
SHARK INTEGRAL PACKAGE
----------------------

Number of atoms                             ...     30
Number of basis functions                   ...    114
Number of shells                            ...     72
Maximum angular momentum                    ...      1
Integral batch strategy                     ... SHARK/LIBINT Hybrid
RI-J (if used) integral strategy            ... SPLIT-RIJ (Revised 2003 algorithm where possible)
Printlevel                                  ...      1
Contraction scheme used                     ... SEGMENTED contraction
Prescreening option                         ... SCHWARTZ
   Thresh                                   ... 1.000e-10
   Tcut                                     ... 1.000e-11
   Tpresel                                  ... 1.000e-11 
Coulomb Range Separation                    ... NOT USED
Exchange Range Separation                   ... NOT USED
Multipole approximations                    ... NOT USED
Finite Nucleus Model                        ... NOT USED
CABS basis                                  ... NOT available
Auxiliary Coulomb fitting basis             ... AVAILABLE
   # of basis functions in Aux-J            ...   1056
   # of shells in Aux-J                     ...    344
   Maximum angular momentum in Aux-J        ...      4
Auxiliary J/K fitting basis                 ... NOT available
Auxiliary Correlation fitting basis         ... NOT available
Auxiliary 'external' fitting basis          ... NOT available

Checking pre-screening integrals            ... done (  0.0 sec) Dimension = 72
Check shell pair data                       ... done (  0.0 sec)
Shell pair information
Shell pair cut-off parameter TPreSel        ...   1.0e-11
Total number of shell pairs                 ...      2628
Shell pairs after pre-screening             ...      2127
Total number of primitive shell pairs       ...     23652
Primitive shell pairs kept                  ...     11754
          la=0 lb=0:    977 shell pairs
          la=1 lb=0:    928 shell pairs
          la=1 lb=1:    222 shell pairs

Calculating one electron integrals          ... done (  0.0 sec)
Calculating RI/J V-Matrix + Cholesky decomp.... done (  0.0 sec)
Calculating Nuclear repulsion               ... done (  0.0 sec) ENN=   1637.829861168395 Eh

Diagonalization of the overlap matrix:
Smallest eigenvalue                        ... 1.840e-01
Time for diagonalization                   ...    0.001 sec
Threshold for overlap eigenvalues          ... 1.000e-07
Number of eigenvalues below threshold      ... 0
Time for construction of square roots      ...    0.001 sec
Total time needed                          ...    0.003 sec

-------------------
DFT GRID GENERATION
-------------------

General Integration Accuracy     IntAcc      ... 4.388
Radial Grid Type                 RadialGrid  ... OptM3 with GC (2021)
Angular Grid (max. ang.)         AngularGrid ... 4 (Lebedev-302)
Angular grid pruning method      GridPruning ... 4 (adaptive)
Weight generation scheme         WeightScheme... mBecke (2022)
Basis function cutoff            BFCut       ... 1.0000e-10
Integration weight cutoff        WCut        ... 1.0000e-14
Partially contracted basis set               ... off
Rotationally invariant grid construction     ... off
Angular grids for H and He will be reduced by one unit

Total number of grid points                  ...   151401
Total number of batches                      ...     2380
Average number of points per batch           ...       63
Average number of grid points per atom       ...     5047
Initializing property integral containers    ... done (  0.0 sec)

SHARK setup successfully completed in   0.8 seconds

Maximum memory used throughout the entire STARTUP-calculation: 53.9 MB
-------------------------------------------------------------------------------
                                 ORCA GUESS
                   Start orbitals & Density for SCF / CASSCF
-------------------------------------------------------------------------------

------------
SCF SETTINGS
------------
Hamiltonian:
 Density Functional     Method          .... DFT(GTOs)
 Exchange Functional    Exchange        .... PBE
   PBE kappa parameter   XKappa         ....  0.804000
   PBE mue parameter    XMuePBE         ....  0.219520
 Correlation Functional Correlation     .... PBE
   PBE beta parameter  CBetaPBE         ....  0.066725
 LDA part of GGA corr.  LDAOpt          .... PW91-LDA
 Gradients option       PostSCFGGA      .... off
   NL short-range parameter             ....  6.400000
 RI-approximation to the Coulomb term is turned on
   Number of AuxJ basis functions       .... 1056


General Settings:
 Integral files         IntName         .... Diclofenac\Diclofenac_PBE_STO-3G\Diclofenac_PBE_STO-3G.orcainp
 Hartree-Fock type      HFTyp           .... RHF
 Total Charge           Charge          ....    0
 Multiplicity           Mult            ....    1
 Number of Electrons    NEL             ....  152
 Basis Dimension        Dim             ....  114
 Nuclear Repulsion      ENuc            ....   1637.8298611684 Eh

Convergence Acceleration:
 AO-DIIS                CNVDIIS         .... on
   Start iteration      DIISMaxIt       ....    12
   Startup error        DIISStart       ....  0.200000
   # of expansion vecs  DIISMaxEq       ....     5
   Bias factor          DIISBfac        ....   1.050
   Max. coefficient     DIISMaxC        ....  10.000
 MO-DIIS                CNVKDIIS        .... off
 Trust-Rad. Augm. Hess. CNVTRAH         .... auto
   Auto Start mean grad. ratio tolernc. ....  1.125000
   Auto Start start iteration           ....     1
   Auto Start num. interpolation iter.  ....    10
   Max. Number of Micro iterations      ....    24
   Max. Number of Macro iterations      .... Maxiter - #DIIS iter
   Number of Davidson start vectors     ....     2
   Converg. threshold    (grad. norm)   ....   5.000e-05
   Grad. Scal. Fac. for Micro threshold ....   0.100
   Minimum threshold for Micro iter.    ....   1.000e-02
   NR start threshold (gradient norm)   ....   1.000e-04
   Initial trust radius                 ....   0.400
   Minimum AH scaling param. (alpha)    ....   1.000
   Maximum AH scaling param. (alpha)    .... 1000.000
   Quad. conv. algorithm                .... NR
   White noise on init. David. guess    .... on
   Maximum white noise                  ....   0.010
   Pseudo random numbers                .... off
   Inactive MOs                         .... canonical
   Orbital update algorithm             .... Taylor
   Preconditioner                       .... Diag
   Full preconditioner red. dimension   ....   250
 SOSCF                  CNVSOSCF        .... on
   Start iteration      SOSCFMaxIt      ....   150
   Startup grad/error   SOSCFStart      ....  0.003300
   Hessian update       SOSCFHessUp     .... L-BFGS
 Level Shifting         CNVShift        .... on
   Level shift para.    LevelShift      ....    0.2500
   Turn off err/grad.   ShiftErr        ....    0.0010
 Zerner damping         CNVZerner       .... off
 Static damping         CNVDamp         .... on
   Fraction old density DampFac         ....    0.7000
   Max. Damping (<1)    DampMax         ....    0.9800
   Min. Damping (>=0)   DampMin         ....    0.0000
   Turn off err/grad.   DampErr         ....    0.1000

SCF Procedure:
 Maximum # iterations   MaxIter         ....   125
 SCF integral mode      SCFMode         .... Direct
   Integral package                     .... SHARK and LIBINT hybrid scheme
 Reset frequency        DirectResetFreq ....    20
 Integral Threshold     Thresh          ....  1.000e-10 Eh
 Primitive CutOff       TCut            ....  1.000e-11 Eh

Convergence Tolerance:
 Convergence Check Mode ConvCheckMode   .... Total+1el-Energy
 Convergence forced     ConvForced      .... 1
 Energy Change          TolE            ....  1.000e-06 Eh
 1-El. energy change                    ....  1.000e-03 Eh
 Orbital Gradient       TolG            ....  5.000e-05
 Orbital Rotation angle TolX            ....  5.000e-05
 DIIS Error             TolErr          ....  1.000e-06

---------------------
INITIAL GUESS: MOREAD
---------------------
Guess MOs are being read from file: Diclofenac\Diclofenac_PBE_STO-3G\Diclofenac_PBE_STO-3G.orcainp.ges
Input Geometry matches current geometry (good)
Input basis set matches current basis set (good)
Occupation numbers will be reassigned to an Aufbau configuration
MOs were renormalized
MOs were reorthogonalized (Cholesky)
                      ------------------
                      INITIAL GUESS DONE (   0.0 sec)
                      ------------------
----------------------
INITIAL GUESS ORBITALS
----------------------
                      0         1         2         3         4         5   
                 -99.62532 -99.61423 -18.49915 -18.45230 -13.89146  -9.80746
                   2.00000   2.00000   2.00000   2.00000   2.00000   2.00000
                  --------  --------  --------  --------  --------  --------
  0O   1s        -0.000000 -0.000001 -0.993334 -0.001308 -0.000233 -0.000020
  0O   2s         0.000001  0.000009 -0.029545  0.000276  0.001426  0.000125
  0O   1pz        0.000000  0.000008 -0.003133 -0.000427  0.000870  0.000087
  0O   1px        0.000000  0.000001 -0.000963 -0.000208  0.000482  0.000048
  0O   1py        0.000000  0.000002  0.002619 -0.000235  0.000507  0.000043
  1C   1s        -0.000000 -0.000000 -0.000648  0.000724 -0.000023  0.000069
  1C   2s         0.000000  0.000001  0.005459 -0.007979  0.000202  0.000019
  1C   1pz       -0.000000  0.000001 -0.001139  0.005137  0.000068  0.000007
  1C   1px        0.000000  0.000000  0.000479  0.002851  0.000059  0.000006
  1C   1py        0.000000  0.000001  0.005466  0.004700  0.000129  0.000013
  2O   1s         0.000000 -0.000000 -0.001229  0.993445 -0.000002 -0.000000
  2O   2s        -0.000000  0.000000 -0.000269  0.029293  0.000015  0.000002
  2O   1pz       -0.000000  0.000000  0.000248  0.003884  0.000005  0.000001
  2O   1px       -0.000000  0.000000  0.000004  0.002161  0.000002  0.000000
  2O   1py       -0.000000  0.000000 -0.000558  0.003619  0.000007  0.000001
  3C   1s        -0.000000 -0.000000  0.000044 -0.000031  0.000011 -0.000023
  3C   2s         0.000003  0.000000 -0.000323  0.000262 -0.000134 -0.000014
  3C   1pz        0.000001 -0.000000  0.000124 -0.000261 -0.000062 -0.000006
  3C   1px       -0.000002  0.000000 -0.000064 -0.000188 -0.000034  0.000002
  3C   1py       -0.000001  0.000001 -0.000584 -0.000451 -0.000031 -0.000005
  4C   1s         0.000000 -0.000000  0.000016 -0.000002 -0.000016 -0.000100
  4C   2s        -0.000000  0.000001 -0.000032  0.000031  0.000312 -0.000126
  4C   1pz       -0.000001 -0.000003  0.000100  0.000017 -0.000041 -0.000025
  4C   1px        0.000001  0.000000  0.000008 -0.000023 -0.000303 -0.000030
  4C   1py       -0.000001  0.000001 -0.000059 -0.000010  0.000282 -0.000093
  5C   1s         0.000000 -0.000000  0.000001  0.000001  0.000006 -0.000003
  5C   2s        -0.000000  0.000000 -0.000011 -0.000007 -0.000003 -0.000002
  5C   1pz        0.000000  0.000000 -0.000017 -0.000004 -0.000017  0.000002
  5C   1px        0.000000 -0.000000  0.000014  0.000006 -0.000049  0.000002
  5C   1py       -0.000000  0.000000 -0.000002  0.000002 -0.000060  0.000001
  6C   1s        -0.000000 -0.000000  0.000000 -0.000000  0.000003  0.000002
  6C   2s         0.000000  0.000000 -0.000002 -0.000000  0.000010  0.000005
  6C   1pz       -0.000000  0.000000  0.000002  0.000001  0.000003 -0.000000
  6C   1px       -0.000000 -0.000000  0.000001  0.000000  0.000027 -0.000004
  6C   1py        0.000000 -0.000000  0.000001  0.000000 -0.000034  0.000005
  7C   1s         0.000000 -0.000000  0.000000 -0.000000  0.000003 -0.000074
  7C   2s        -0.000000  0.000000 -0.000002 -0.000000  0.000043 -0.000146
  7C   1pz        0.000000 -0.000002  0.000001 -0.000000  0.000015  0.000003
  7C   1px        0.000000  0.000000  0.000000 -0.000000  0.000037  0.000066
  7C   1py       -0.000000  0.000001 -0.000001 -0.000000  0.000058 -0.000079
  8C   1s         0.000000  0.000001  0.000001  0.000000 -0.000018 -0.000207
  8C   2s         0.000000 -0.000002 -0.000008 -0.000004  0.000235  0.000223
  8C   1pz        0.000000  0.000013 -0.000012 -0.000001 -0.000020  0.000084
  8C   1px       -0.000000 -0.000000  0.000011  0.000003 -0.000229  0.000331
  8C   1py       -0.000000 -0.000003 -0.000001  0.000000  0.000451 -0.000129
  9C   1s         0.000001  0.000003  0.000017  0.000001  0.000571 -0.001617
  9C   2s        -0.000003 -0.000011 -0.000078 -0.000002 -0.005822 -0.000189
  9C   1pz       -0.000002  0.000015  0.000081  0.000011  0.000504 -0.000017
  9C   1px        0.000001 -0.000003  0.000053  0.000009  0.003547 -0.000033
  9C   1py       -0.000000 -0.000009 -0.000018  0.000001 -0.004151 -0.000452
 10N   1s         0.000006  0.000000  0.000132 -0.000001  0.992124  0.000797
 10N   2s        -0.000058  0.000002 -0.001199  0.000014  0.037089 -0.006537
 10N   1pz       -0.000035  0.000006  0.000979 -0.000006  0.002779  0.000239
 10N   1px        0.000035 -0.000008  0.000622 -0.000000  0.001237 -0.001748
 10N   1py        0.000012 -0.000007  0.000303  0.000011  0.000849 -0.004812
 11C   1s        -0.000000  0.000000  0.000014 -0.000000  0.000592  0.970358
 11C   2s        -0.000012  0.000009 -0.000071 -0.000002 -0.006349  0.045796
 11C   1pz       -0.000007 -0.000007  0.000024 -0.000003 -0.000182 -0.000130
 11C   1px        0.000008  0.000000  0.000033 -0.000000  0.001959  0.000265
 11C   1py        0.000009 -0.000013  0.000036  0.000002  0.005518  0.002803
 12C   1s        -0.000001  0.000058  0.000003 -0.000000 -0.000010 -0.129550
 12C   2s         0.000004 -0.000393 -0.000004 -0.000000  0.000155 -0.014945
 12C   1pz        0.000005  0.000284  0.000010 -0.000000 -0.000120 -0.004963
 12C   1px       -0.000002 -0.000108  0.000029 -0.000000 -0.000060  0.003787
 12C   1py        0.000004  0.000232  0.000016 -0.000001 -0.000421  0.002107
 13Cl  1s        -0.000004 -0.994360 -0.000003  0.000000 -0.000000 -0.000024
 13Cl  2s        -0.000000 -0.016156  0.000009 -0.000000 -0.000001  0.000088
 13Cl  1pz       -0.000000 -0.000082  0.000006 -0.000000  0.000010 -0.000065
 13Cl  1px        0.000000  0.000032 -0.000011  0.000000 -0.000002  0.000023
 13Cl  1py       -0.000000 -0.000066 -0.000006  0.000000  0.000008 -0.000057
 13Cl  3s         0.000001  0.002028 -0.000056  0.000001 -0.000040  0.000832
 13Cl  2pz        0.000001  0.000179 -0.000030  0.000001 -0.000061  0.000654
 13Cl  2px       -0.000000 -0.000068  0.000061 -0.000002  0.000013 -0.000246
 13Cl  2py        0.000001  0.000145  0.000031 -0.000001 -0.000055  0.000528
 14C   1s        -0.000000 -0.000001  0.000000 -0.000000  0.000003  0.001018
 14C   2s        -0.000001  0.000020 -0.000007  0.000000  0.000037  0.001638
 14C   1pz        0.000002 -0.000019 -0.000003  0.000000 -0.000049  0.000208
 14C   1px       -0.000001  0.000013 -0.000003  0.000000  0.000022 -0.000393
 14C   1py       -0.000001  0.000002  0.000006 -0.000000 -0.000024 -0.000897
 15C   1s        -0.000001  0.000001  0.000000  0.000000  0.000003 -0.000299
 15C   2s         0.000003 -0.000004  0.000000 -0.000000  0.000006 -0.000302
 15C   1pz        0.000000  0.000000  0.000000  0.000000 -0.000001 -0.000016
 15C   1px       -0.000002  0.000001  0.000000  0.000000  0.000010  0.000066
 15C   1py       -0.000005  0.000006 -0.000000  0.000000  0.000042  0.000209
 16C   1s         0.000001  0.000000  0.000000 -0.000000  0.000002  0.001229
 16C   2s        -0.000020  0.000001 -0.000000  0.000000  0.000054  0.001824
 16C   1pz       -0.000020  0.000002  0.000001  0.000000  0.000055 -0.000192
 16C   1px        0.000011 -0.000001  0.000000 -0.000000 -0.000039 -0.000166
 16C   1py       -0.000009  0.000001  0.000000 -0.000000 -0.000022 -0.001091
 17C   1s        -0.000058  0.000001  0.000000 -0.000000 -0.000014 -0.147024
 17C   2s         0.000388 -0.000004  0.000002  0.000000  0.000246 -0.015773
 17C   1pz        0.000279  0.000005 -0.000005  0.000000  0.000034  0.004816
 17C   1px       -0.000221 -0.000004 -0.000004  0.000000 -0.000195 -0.002056
 17C   1py       -0.000127 -0.000002  0.000000 -0.000000 -0.000460  0.004118
 18Cl  1s         0.994359 -0.000004  0.000000  0.000000  0.000012 -0.000029
 18Cl  2s         0.016156 -0.000000 -0.000000 -0.000000 -0.000038  0.000104
 18Cl  1pz       -0.000084 -0.000000  0.000000  0.000000  0.000040  0.000072
 18Cl  1px        0.000064  0.000000 -0.000000  0.000000  0.000004 -0.000057
 18Cl  1py        0.000030  0.000000  0.000001  0.000000  0.000073 -0.000038
 18Cl  3s        -0.002036 -0.000001  0.000005  0.000000  0.000399  0.000942
 18Cl  2pz        0.000183  0.000001 -0.000003 -0.000000 -0.000253 -0.000723
 18Cl  2px       -0.000139 -0.000001  0.000000 -0.000000 -0.000022  0.000562
 18Cl  2py       -0.000067 -0.000001 -0.000005 -0.000000 -0.000452  0.000325
 19H   1s        -0.000002 -0.000028  0.006745 -0.000124 -0.004335 -0.000346
 20H   1s        -0.000001  0.000000 -0.000029 -0.000221 -0.000005 -0.000001
 21H   1s        -0.000008  0.000000 -0.000059  0.000030  0.000227  0.000024
 22H   1s         0.000000 -0.000000 -0.000001  0.000009 -0.000023  0.000000
 23H   1s         0.000000  0.000000  0.000000 -0.000000 -0.000017 -0.000000
 24H   1s         0.000000  0.000000  0.000000  0.000000 -0.000022  0.000017
 25H   1s        -0.000000 -0.000008 -0.000002  0.000000 -0.000076 -0.000783
 26H   1s         0.000163 -0.000004 -0.000117 -0.000002 -0.007938 -0.000544
 27H   1s         0.000001 -0.000034 -0.000000  0.000000 -0.000019 -0.000080
 28H   1s         0.000001 -0.000001  0.000000 -0.000000 -0.000016 -0.000010
 29H   1s         0.000032 -0.000001 -0.000000 -0.000000 -0.000017 -0.000075
                      6         7         8         9        10        11   
                  -9.80414  -9.80371  -9.77062  -9.76711  -9.75528  -9.75381
                   2.00000   2.00000   2.00000   2.00000   2.00000   2.00000
                  --------  --------  --------  --------  --------  --------
  0O   1s        -0.000001  0.000008 -0.000704 -0.000028  0.000000 -0.000000
  0O   2s         0.000009 -0.000050  0.006165  0.000193 -0.000000  0.000003
  0O   1pz        0.000007 -0.000033  0.000205  0.000122 -0.000000  0.000003
  0O   1px        0.000002 -0.000022 -0.000663  0.000044  0.000000  0.000001
  0O   1py        0.000002 -0.000020 -0.004096  0.000067 -0.000000  0.000001
  1C   1s         0.000007 -0.000032 -0.990806 -0.000489  0.000000 -0.000005
  1C   2s         0.000002 -0.000008 -0.039098 -0.000001 -0.000000  0.000000
  1C   1pz        0.000001 -0.000003  0.000656 -0.000011 -0.000000  0.000000
  1C   1px        0.000001 -0.000002  0.000457 -0.000016  0.000000  0.000000
  1C   1py        0.000001 -0.000006  0.000405 -0.000023  0.000000  0.000000
  2O   1s        -0.000000  0.000000 -0.000665  0.000002 -0.000000 -0.000000
  2O   2s         0.000000 -0.000001  0.007966 -0.000011  0.000000  0.000000
  2O   1pz        0.000000 -0.000001  0.002394 -0.000009  0.000000  0.000000
  2O   1px        0.000000 -0.000000  0.001341 -0.000003 -0.000000  0.000000
  2O   1py        0.000000 -0.000000  0.002360 -0.000004  0.000000  0.000000
  3C   1s        -0.000005  0.000002  0.012636  0.000107  0.000003  0.000001
  3C   2s        -0.000006  0.000004  0.006934  0.000390  0.000001  0.000000
  3C   1pz       -0.000003  0.000002 -0.005064  0.000073  0.000001 -0.000000
  3C   1px        0.000003 -0.000003 -0.001541  0.000149 -0.000001  0.000000
  3C   1py       -0.000000 -0.000003  0.001511  0.000084 -0.000000  0.000000
  4C   1s        -0.000005  0.000018  0.001208 -0.015123 -0.000001 -0.000003
  4C   2s        -0.000010  0.000027  0.000031 -0.010122  0.000000 -0.000003
  4C   1pz       -0.000004  0.000010 -0.000054 -0.001012 -0.000000 -0.000002
  4C   1px       -0.000003  0.000009  0.000113 -0.002384  0.000000 -0.000001
  4C   1py       -0.000006  0.000017  0.000022 -0.006023 -0.000000 -0.000002
  5C   1s        -0.000000 -0.000001 -0.000086 -0.000330  0.000000  0.000000
  5C   2s         0.000000 -0.000001 -0.000045  0.000479 -0.000000  0.000000
  5C   1pz        0.000000 -0.000000  0.000039 -0.000010  0.000000  0.000000
  5C   1px        0.000000  0.000000  0.000019 -0.000118 -0.000000 -0.000000
  5C   1py        0.000000 -0.000002 -0.000027  0.000157 -0.000000  0.000000
  6C   1s        -0.000000 -0.000003 -0.000000 -0.000616  0.000000 -0.000000
  6C   2s         0.000000 -0.000002 -0.000000 -0.000175  0.000000 -0.000000
  6C   1pz       -0.000000 -0.000001 -0.000004  0.000019  0.000000 -0.000000
  6C   1px       -0.000000  0.000003  0.000001  0.000161 -0.000000 -0.000000
  6C   1py        0.000000 -0.000002  0.000002 -0.000210  0.000000 -0.000000
  7C   1s        -0.000005  0.000027 -0.000002 -0.000291 -0.000000 -0.000001
  7C   2s        -0.000008  0.000050 -0.000002  0.000439  0.000000 -0.000000
  7C   1pz        0.000002  0.000013  0.000000 -0.000020  0.000000 -0.000001
  7C   1px        0.000003 -0.000017  0.000001 -0.000141  0.000000 -0.000000
  7C   1py       -0.000005  0.000030 -0.000000  0.000088  0.000000 -0.000000
  8C   1s        -0.000007 -0.000118  0.000007 -0.010644  0.000003  0.000002
  8C   2s         0.000009 -0.000249  0.000010 -0.010073  0.000001  0.000003
  8C   1pz       -0.000009 -0.000110  0.000005  0.001523  0.000000  0.000003
  8C   1px        0.000014 -0.000148 -0.000006  0.006281 -0.000001  0.000002
  8C   1py       -0.000010 -0.000096 -0.000005  0.001193 -0.000000  0.000002
  9C   1s        -0.000187  0.000258 -0.000464  0.990174 -0.000002  0.000166
  9C   2s        -0.000035  0.000010 -0.000065  0.044191 -0.000000  0.000001
  9C   1pz        0.000020 -0.000018 -0.000021  0.000019 -0.000003  0.000007
  9C   1px       -0.000015 -0.000007  0.000004  0.000948 -0.000000 -0.000006
  9C   1py       -0.000051  0.000097  0.000034 -0.001344  0.000001 -0.000011
 10N   1s         0.000075 -0.000109  0.000044  0.000816 -0.000006  0.000009
 10N   2s        -0.000478  0.000724 -0.000240 -0.006267  0.000022 -0.000040
 10N   1pz        0.000211  0.000029  0.000175 -0.000429  0.000018  0.000037
 10N   1px       -0.000282  0.000212  0.000114 -0.003599  0.000006 -0.000033
 10N   1py       -0.000415  0.000649  0.000038  0.003722  0.000044 -0.000024
 11C   1s         0.112553 -0.163062  0.000079  0.001793 -0.000145  0.000198
 11C   2s        -0.001718  0.003937 -0.000006 -0.000141 -0.000278  0.000273
 11C   1pz       -0.005507 -0.003552  0.000011  0.000004  0.000029  0.000008
 11C   1px        0.002694  0.003073  0.000006 -0.000162 -0.000062  0.000033
 11C   1py       -0.003359  0.003027  0.000004  0.000245 -0.000177  0.000168
 12C   1s        -0.246293 -0.950502  0.000021 -0.000018 -0.000783  0.010144
 12C   2s        -0.011561 -0.040184  0.000001  0.000059  0.000329 -0.009324
 12C   1pz       -0.000891 -0.000746  0.000002 -0.000010  0.000169  0.000076
 12C   1px        0.000529 -0.000034  0.000006 -0.000005 -0.000046 -0.001832
 12C   1py       -0.000157 -0.001732  0.000004  0.000019  0.000240 -0.006442
 13Cl  1s        -0.000053 -0.000226  0.000001  0.000019 -0.000001  0.000006
 13Cl  2s         0.000165  0.000690 -0.000002 -0.000045  0.000004 -0.000005
 13Cl  1pz       -0.000108 -0.000452  0.000001  0.000027 -0.000003 -0.000001
 13Cl  1px        0.000040  0.000173 -0.000002 -0.000010  0.000001 -0.000001
 13Cl  1py       -0.000095 -0.000368 -0.000001 -0.000025 -0.000002 -0.000004
 13Cl  3s         0.001293  0.005251 -0.000011 -0.000177  0.000027  0.000119
 13Cl  2pz        0.000989  0.004082 -0.000006 -0.000206  0.000025  0.000044
 13Cl  2px       -0.000365 -0.001561  0.000013  0.000073 -0.000011  0.000007
 13Cl  2py        0.000860  0.003334  0.000004  0.000182  0.000013  0.000112
 14C   1s         0.001525  0.008516 -0.000005 -0.000163 -0.015364  0.984908
 14C   2s         0.002364  0.009533 -0.000002 -0.000030 -0.001827  0.046261
 14C   1pz       -0.000095  0.000368 -0.000001  0.000001 -0.000532  0.001625
 14C   1px       -0.000348 -0.001897 -0.000000  0.000012  0.000265 -0.001218
 14C   1py       -0.001479 -0.005987  0.000002  0.000017 -0.000310 -0.000269
 15C   1s        -0.000309  0.000403  0.000000 -0.000005  0.077739 -0.098229
 15C   2s         0.000286 -0.000491  0.000000  0.000002  0.013386 -0.013930
 15C   1pz        0.000129  0.000069  0.000000 -0.000000  0.004792  0.004789
 15C   1px       -0.000088 -0.000017  0.000000  0.000001 -0.003869 -0.001943
 15C   1py        0.000001  0.000113 -0.000000  0.000000 -0.002486  0.004355
 16C   1s        -0.008323  0.002601 -0.000000  0.000000 -0.986916 -0.023330
 16C   2s        -0.009510  0.002363 -0.000000  0.000006 -0.046211  0.000254
 16C   1pz       -0.000012 -0.000164  0.000000 -0.000001  0.001564 -0.000600
 16C   1px        0.001599 -0.000308  0.000000 -0.000005 -0.000789  0.000446
 16C   1py        0.006030 -0.001559  0.000000 -0.000003  0.001107  0.000175
 17C   1s         0.952785 -0.226899  0.000004 -0.000002 -0.010283  0.000420
 17C   2s         0.040593 -0.008669 -0.000002 -0.000038  0.009412  0.000017
 17C   1pz       -0.001033 -0.000350 -0.000000  0.000040 -0.000224  0.000186
 17C   1px        0.000949  0.000028 -0.000002  0.000018  0.001857 -0.000106
 17C   1py        0.001199 -0.000777  0.000001 -0.000011  0.006479  0.000068
 18Cl  1s         0.000229 -0.000060 -0.000000 -0.000004 -0.000005  0.000001
 18Cl  2s        -0.000695  0.000179  0.000000  0.000010  0.000002 -0.000004
 18Cl  1pz       -0.000440  0.000113  0.000000  0.000005 -0.000001 -0.000003
 18Cl  1px        0.000353 -0.000090 -0.000000  0.000000  0.000002  0.000002
 18Cl  1py        0.000213 -0.000049  0.000000  0.000006  0.000005  0.000001
 18Cl  3s        -0.005169  0.001294  0.000001  0.000050 -0.000123 -0.000033
 18Cl  2pz        0.003978 -0.001010 -0.000000 -0.000039  0.000047  0.000027
 18Cl  2px       -0.003191  0.000804  0.000000  0.000000 -0.000059 -0.000021
 18Cl  2py       -0.001912  0.000442 -0.000000 -0.000048 -0.000102 -0.000009
 19H   1s        -0.000027  0.000133  0.001331 -0.000523  0.000001 -0.000010
 20H   1s         0.000001 -0.000001 -0.000061 -0.000100 -0.000000  0.000000
 21H   1s         0.000016 -0.000014  0.000024 -0.000108 -0.000004  0.000000
 22H   1s        -0.000000 -0.000000  0.000007 -0.000111  0.000000 -0.000000
 23H   1s         0.000000 -0.000000 -0.000000 -0.000065  0.000000  0.000000
 24H   1s         0.000001 -0.000014 -0.000000 -0.000102 -0.000000  0.000000
 25H   1s        -0.000012  0.000659 -0.000001  0.000209  0.000001 -0.000006
 26H   1s        -0.000284  0.000243 -0.000014 -0.000739  0.000068 -0.000009
 27H   1s        -0.000128 -0.000164  0.000000 -0.000001  0.000244 -0.009329
 28H   1s        -0.000089  0.000133  0.000000 -0.000000 -0.000900  0.001087
 29H   1s         0.000194  0.000029  0.000000 -0.000000  0.009326  0.000118
                     12        13        14        15        16        17   
                  -9.74907  -9.73548  -9.72666  -9.72550  -9.71989  -9.71842
                   2.00000   2.00000   2.00000   2.00000   2.00000   2.00000
                  --------  --------  --------  --------  --------  --------
  0O   1s         0.000000 -0.000021 -0.000046  0.000001 -0.000000 -0.000001
  0O   2s        -0.000001  0.000131  0.000388 -0.000012  0.000002  0.000008
  0O   1pz       -0.000000  0.000065  0.000360 -0.000006  0.000001  0.000004
  0O   1px       -0.000000  0.000024  0.000137 -0.000002  0.000000 -0.000000
  0O   1py       -0.000000 -0.000001 -0.000007 -0.000004  0.000001  0.000005
  1C   1s         0.000000  0.000367  0.014298 -0.000115  0.000006 -0.000029
  1C   2s        -0.000000  0.000401 -0.006244  0.000043 -0.000002  0.000001
  1C   1pz       -0.000000  0.000376 -0.005165  0.000038 -0.000002 -0.000009
  1C   1px       -0.000000 -0.000053 -0.001642  0.000015  0.000000  0.000004
  1C   1py       -0.000000 -0.000152  0.001736 -0.000010  0.000001 -0.000009
  2O   1s        -0.000000  0.000001 -0.000027 -0.000000  0.000000  0.000001
  2O   2s        -0.000000 -0.000023  0.000165  0.000000 -0.000000 -0.000004
  2O   1pz        0.000000 -0.000038  0.000337 -0.000001 -0.000000 -0.000002
  2O   1px       -0.000000  0.000040  0.000084 -0.000001  0.000000 -0.000002
  2O   1py       -0.000000  0.000014 -0.000237  0.000002 -0.000000 -0.000002
  3C   1s         0.000001 -0.064181  0.987791 -0.007645  0.000653  0.001102
  3C   2s         0.000000 -0.010561  0.045771 -0.000291 -0.000016  0.000143
  3C   1pz        0.000000 -0.001378  0.000897  0.000003 -0.000009  0.000010
  3C   1px       -0.000000 -0.005739 -0.000397  0.000045 -0.000032  0.000015
  3C   1py        0.000000 -0.000885 -0.000492  0.000062 -0.000027 -0.000120
  4C   1s         0.000003  0.987532  0.065686 -0.001320  0.003295  0.021192
  4C   2s         0.000001  0.045632 -0.004903 -0.000302 -0.000582 -0.006435
  4C   1pz        0.000000  0.000272  0.001399 -0.000043 -0.000079 -0.000401
  4C   1px       -0.000000  0.001292  0.006149 -0.000212 -0.000462 -0.003304
  4C   1py        0.000001 -0.000025  0.001041  0.000011  0.000248  0.003703
  5C   1s         0.000000 -0.026998 -0.004053  0.004158  0.054369  0.736851
  5C   2s         0.000000 -0.010920 -0.000586  0.000424  0.005325  0.039853
  5C   1pz       -0.000000  0.000475  0.000002  0.000044  0.000418  0.001090
  5C   1px       -0.000000  0.004222  0.000047  0.000094  0.001779  0.004433
  5C   1py        0.000000 -0.005140 -0.000418  0.000253  0.000442  0.001641
  6C   1s        -0.000000  0.000224 -0.000753 -0.003227 -0.256297 -0.625714
  6C   2s         0.000000  0.000654 -0.000000 -0.001359 -0.021685 -0.034064
  6C   1pz        0.000000 -0.000059 -0.000008 -0.000082 -0.000877  0.001344
  6C   1px        0.000000 -0.000318  0.000003 -0.000108 -0.001361  0.005846
  6C   1py        0.000000  0.000093 -0.000049 -0.000652 -0.006251  0.001278
  7C   1s         0.000000 -0.001537 -0.000201  0.082217  0.951139 -0.210987
  7C   2s         0.000000 -0.000227  0.000069  0.013504  0.045670 -0.003198
  7C   1pz        0.000000  0.000046  0.000007 -0.000514 -0.000548 -0.000631
  7C   1px       -0.000000  0.000199  0.000010 -0.004444 -0.001719 -0.001281
  7C   1py        0.000000  0.000040  0.000041  0.004972 -0.002179 -0.003843
  8C   1s         0.000002 -0.001218 -0.007765 -0.986585  0.081829 -0.012681
  8C   2s        -0.000000  0.000163 -0.000382 -0.046306 -0.005714  0.001171
  8C   1pz       -0.000001 -0.000012  0.000009  0.000252 -0.000421  0.000124
  8C   1px       -0.000001  0.000016  0.000033  0.000262 -0.004007  0.000927
  8C   1py       -0.000000 -0.000167  0.000059  0.001870  0.004980 -0.000841
  9C   1s        -0.000022  0.016664  0.000894 -0.012163  0.001208 -0.000033
  9C   2s        -0.000000 -0.008866 -0.000297  0.009321 -0.000408  0.000208
  9C   1pz       -0.000001  0.001005  0.000056  0.001536 -0.000096  0.000031
  9C   1px       -0.000000  0.002290 -0.000007  0.006423 -0.000366  0.000164
  9C   1py        0.000001  0.006133  0.000429  0.001051 -0.000156 -0.000047
 10N   1s        -0.000009 -0.000011  0.000017  0.000020  0.000007  0.000004
 10N   2s         0.000057  0.000296 -0.000032 -0.000274 -0.000023 -0.000017
 10N   1pz       -0.000002  0.000000 -0.000091 -0.000042 -0.000009  0.000006
 10N   1px        0.000019  0.000007  0.000020 -0.000216 -0.000031  0.000018
 10N   1py        0.000044 -0.000078  0.000167 -0.000054  0.000020  0.000043
 11C   1s        -0.000481  0.000150  0.000037 -0.000222  0.000115 -0.000016
 11C   2s         0.000047 -0.000076 -0.000041  0.000053 -0.000040  0.000000
 11C   1pz       -0.000009 -0.000018 -0.000015 -0.000022 -0.000011  0.000001
 11C   1px        0.000055 -0.000040  0.000008  0.000025 -0.000040  0.000009
 11C   1py        0.000169  0.000073  0.000037 -0.000157  0.000042 -0.000001
 12C   1s        -0.001392  0.000004 -0.000001  0.000178  0.000003 -0.000001
 12C   2s         0.000629  0.000004 -0.000003 -0.000100  0.000007 -0.000001
 12C   1pz       -0.000033  0.000004 -0.000003 -0.000042  0.000004 -0.000001
 12C   1px        0.000172 -0.000003 -0.000002 -0.000061 -0.000001 -0.000000
 12C   1py        0.000546 -0.000002 -0.000003  0.000013  0.000003 -0.000001
 13Cl  1s        -0.000006 -0.000001 -0.000001 -0.000012  0.000000 -0.000000
 13Cl  2s         0.000015  0.000002  0.000002  0.000030 -0.000001  0.000000
 13Cl  1pz       -0.000004 -0.000001 -0.000001 -0.000019  0.000001 -0.000000
 13Cl  1px       -0.000001  0.000001  0.000001 -0.000006  0.000000  0.000000
 13Cl  1py       -0.000009  0.000001  0.000001  0.000013 -0.000001  0.000000
 13Cl  3s         0.000066  0.000008  0.000009  0.000102 -0.000003  0.000000
 13Cl  2pz        0.000030  0.000006  0.000005  0.000143 -0.000006  0.000001
 13Cl  2px        0.000003 -0.000006 -0.000010  0.000047 -0.000001 -0.000001
 13Cl  2py        0.000071 -0.000006 -0.000007 -0.000096  0.000004 -0.000001
 14C   1s        -0.101271  0.000001 -0.000001  0.000002  0.000000 -0.000000
 14C   2s         0.004962  0.000000  0.000001  0.000017 -0.000002  0.000000
 14C   1pz        0.004704 -0.000001 -0.000000 -0.000005  0.000000 -0.000000
 14C   1px       -0.001974  0.000001  0.000000 -0.000013  0.000002 -0.000000
 14C   1py        0.004077 -0.000000 -0.000001 -0.000012  0.000001 -0.000000
 15C   1s        -0.982308  0.000003  0.000001 -0.000002  0.000000  0.000000
 15C   2s        -0.043510  0.000000  0.000000  0.000001  0.000000 -0.000000
 15C   1pz       -0.000119  0.000000 -0.000000 -0.000001  0.000000 -0.000000
 15C   1px        0.000372  0.000000  0.000000 -0.000000  0.000000 -0.000000
 15C   1py        0.000889  0.000000  0.000000 -0.000000  0.000000  0.000000
 16C   1s        -0.077336 -0.000001  0.000003 -0.000004  0.000000 -0.000000
 16C   2s         0.006041  0.000001 -0.000001 -0.000000  0.000000  0.000000
 16C   1pz       -0.004886  0.000000  0.000000  0.000001 -0.000000  0.000000
 16C   1px        0.003813 -0.000001 -0.000000  0.000002 -0.000000  0.000000
 16C   1py        0.002088 -0.000001  0.000001 -0.000001 -0.000000 -0.000000
 17C   1s        -0.001256 -0.000007  0.000003  0.000060 -0.000005  0.000000
 17C   2s         0.000422  0.000000  0.000002  0.000005 -0.000001  0.000000
 17C   1pz       -0.000015  0.000004  0.000002 -0.000033  0.000005 -0.000001
 17C   1px        0.000119  0.000003  0.000001 -0.000027  0.000005 -0.000001
 17C   1py        0.000402 -0.000008 -0.000000  0.000013 -0.000003 -0.000000
 18Cl  1s        -0.000006 -0.000001  0.000001  0.000000 -0.000000 -0.000000
 18Cl  2s         0.000015  0.000002 -0.000002 -0.000001  0.000000  0.000000
 18Cl  1pz        0.000004  0.000001 -0.000001 -0.000000  0.000000  0.000000
 18Cl  1px       -0.000005 -0.000000  0.000000 -0.000000  0.000000 -0.000000
 18Cl  1py       -0.000008  0.000001 -0.000001 -0.000001  0.000000  0.000000
 18Cl  3s         0.000071  0.000009 -0.000009 -0.000001  0.000000  0.000001
 18Cl  2pz       -0.000034 -0.000007  0.000007  0.000002 -0.000000 -0.000000
 18Cl  2px        0.000040  0.000000 -0.000003  0.000001 -0.000000  0.000000
 18Cl  2py        0.000062 -0.000010  0.000006  0.000004 -0.000000 -0.000001
 19H   1s         0.000002 -0.000251 -0.000616  0.000037 -0.000009 -0.000028
 20H   1s         0.000000  0.000723 -0.009675  0.000086  0.000002 -0.000077
 21H   1s        -0.000000  0.000574 -0.009642  0.000079 -0.000005 -0.000035
 22H   1s        -0.000000  0.000397  0.000038  0.000016 -0.000662 -0.007124
 23H   1s        -0.000000 -0.000085 -0.000014  0.000141  0.002607  0.006057
 24H   1s        -0.000000 -0.000034 -0.000016 -0.000951 -0.009099  0.001828
 25H   1s         0.000002 -0.000049  0.000055  0.009408 -0.000588  0.000089
 26H   1s         0.000006 -0.000125  0.000164  0.000019 -0.000005 -0.000007
 27H   1s         0.000800 -0.000000 -0.000000 -0.000000 -0.000000  0.000000
 28H   1s         0.009281 -0.000000 -0.000000  0.000000 -0.000000 -0.000000
 29H   1s         0.000575 -0.000000 -0.000000  0.000000 -0.000000 -0.000000
                     18        19        20        21        22        23   
                  -9.71748  -8.98918  -8.97861  -6.84174  -6.83160  -6.82438
                   2.00000   2.00000   2.00000   2.00000   2.00000   2.00000
                  --------  --------  --------  --------  --------  --------
  0O   1s         0.000001  0.000002  0.000027 -0.000000 -0.000010  0.000002
  0O   2s        -0.000010 -0.000014 -0.000203  0.000001  0.000066 -0.000018
  0O   1pz       -0.000004 -0.000007 -0.000177  0.000000  0.000042 -0.000008
  0O   1px        0.000000 -0.000008 -0.000024  0.000002  0.000025 -0.000010
  0O   1py       -0.000004 -0.000004 -0.000051  0.000000  0.000019 -0.000005
  1C   1s         0.000009  0.000000  0.000008 -0.000000 -0.000003  0.000000
  1C   2s         0.000006 -0.000002 -0.000019  0.000000  0.000011 -0.000003
  1C   1pz        0.000015  0.000001 -0.000016 -0.000000  0.000004  0.000001
  1C   1px       -0.000005 -0.000002 -0.000007  0.000000  0.000008 -0.000002
  1C   1py        0.000010 -0.000000 -0.000016  0.000000  0.000011 -0.000000
  2O   1s        -0.000000 -0.000000  0.000001  0.000000 -0.000000 -0.000000
  2O   2s         0.000004  0.000000 -0.000006 -0.000000  0.000002  0.000001
  2O   1pz        0.000002  0.000000 -0.000002 -0.000000  0.000002  0.000000
  2O   1px        0.000002  0.000000 -0.000002 -0.000000 -0.000000  0.000001
  2O   1py        0.000003  0.000000 -0.000003 -0.000000  0.000001  0.000000
  3C   1s        -0.002223  0.000006  0.000006 -0.000002 -0.000001  0.000004
  3C   2s        -0.000093 -0.000055 -0.000007  0.000023  0.000000 -0.000062
  3C   1pz        0.000002 -0.000024  0.000003  0.000011  0.000001 -0.000026
  3C   1px        0.000085  0.000040 -0.000005 -0.000015 -0.000000  0.000047
  3C   1py        0.000074  0.000014 -0.000028 -0.000002  0.000008  0.000022
  4C   1s        -0.019269 -0.000006  0.000010  0.000001 -0.000002 -0.000004
  4C   2s         0.005312  0.000004 -0.000014 -0.000001 -0.000009  0.000007
  4C   1pz        0.000327  0.000017  0.000060 -0.000005 -0.000031  0.000020
  4C   1px        0.002800 -0.000019 -0.000005  0.000006 -0.000003 -0.000024
  4C   1py       -0.003270  0.000013 -0.000030 -0.000004  0.000001  0.000019
  5C   1s        -0.658730 -0.000001  0.000000  0.000000  0.000000 -0.000000
  5C   2s        -0.023099  0.000006 -0.000004 -0.000002  0.000001  0.000007
  5C   1pz        0.000929 -0.000004 -0.000002  0.000001  0.000002 -0.000005
  5C   1px        0.004290 -0.000002  0.000004  0.000000 -0.000001 -0.000002
  5C   1py        0.000118  0.000003 -0.000001 -0.000001  0.000000  0.000004
  6C   1s        -0.723438  0.000000  0.000000 -0.000000  0.000000  0.000000
  6C   2s        -0.025431 -0.000000 -0.000001  0.000000  0.000000 -0.000000
  6C   1pz       -0.000750  0.000000 -0.000002  0.000000  0.000001  0.000000
  6C   1px       -0.003219  0.000000  0.000000 -0.000000 -0.000000  0.000000
  6C   1py       -0.000482 -0.000001  0.000000  0.000000 -0.000000 -0.000001
  7C   1s        -0.156977 -0.000000  0.000005  0.000000 -0.000000 -0.000000
  7C   2s        -0.000238  0.000002 -0.000006 -0.000001 -0.000011  0.000004
  7C   1pz       -0.000714 -0.000000  0.000049 -0.000000 -0.000022 -0.000000
  7C   1px       -0.001462 -0.000001 -0.000006  0.000000  0.000010 -0.000002
  7C   1py       -0.004353  0.000001 -0.000013 -0.000000 -0.000001  0.000001
  8C   1s        -0.013652 -0.000002 -0.000093  0.000000  0.000017 -0.000002
  8C   2s         0.000742 -0.000002  0.000064  0.000002 -0.000007 -0.000001
  8C   1pz        0.000054 -0.000005 -0.000322  0.000003  0.000110 -0.000007
  8C   1px        0.000606  0.000002  0.000003 -0.000001  0.000019 -0.000000
  8C   1py       -0.000865  0.000010  0.000068 -0.000003 -0.000050  0.000015
  9C   1s        -0.001279 -0.000032 -0.000157  0.000005  0.000032 -0.000024
  9C   2s         0.000129  0.000064  0.000258 -0.000013 -0.000077  0.000078
  9C   1pz        0.000023  0.000058 -0.000368 -0.000031  0.000106  0.000082
  9C   1px        0.000175 -0.000023  0.000076  0.000004 -0.000031 -0.000030
  9C   1py       -0.000184  0.000002  0.000217  0.000003 -0.000118  0.000004
 10N   1s        -0.000017 -0.000163 -0.000005  0.000007  0.000027 -0.000190
 10N   2s         0.000098  0.001337 -0.000076 -0.000219 -0.000098  0.001761
 10N   1pz        0.000007  0.000741 -0.000159 -0.000065  0.000173  0.000859
 10N   1px        0.000037 -0.000750  0.000189  0.000171 -0.000150 -0.000805
 10N   1py       -0.000087 -0.000263  0.000132  0.000216 -0.000103 -0.000263
 11C   1s        -0.000024  0.000053 -0.000057 -0.000032  0.000028  0.000021
 11C   2s         0.000013  0.000262 -0.000192 -0.000319  0.000268  0.000757
 11C   1pz        0.000002  0.000062  0.000056 -0.000181 -0.000185 -0.000069
 11C   1px        0.000003 -0.000089  0.000000  0.000176  0.000038  0.000115
 11C   1py       -0.000012 -0.000108  0.000151  0.000148 -0.000268  0.000699
 12C   1s         0.000002  0.000043 -0.002501 -0.000027  0.001776  0.000017
 12C   2s        -0.000002 -0.000129  0.009135  0.000109 -0.012037 -0.000213
 12C   1pz       -0.000001 -0.000125 -0.006244  0.000122  0.007815 -0.000141
 12C   1px       -0.000001  0.000061  0.002371 -0.000055 -0.002977  0.000083
 12C   1py        0.000000 -0.000076 -0.005117  0.000091  0.006459  0.000011
 13Cl  1s        -0.000000  0.000043  0.376522  0.000002  0.005071 -0.000000
 13Cl  2s         0.000000 -0.000121 -1.050732 -0.000006 -0.014343 -0.000000
 13Cl  1pz       -0.000000 -0.000000 -0.008650  0.000181  0.737988  0.000046
 13Cl  1px       -0.000000  0.000000  0.003318 -0.000064 -0.278838 -0.000060
 13Cl  1py        0.000000  0.000001 -0.006861  0.000160  0.592208 -0.000301
 13Cl  3s         0.000000 -0.000020 -0.054338  0.000020  0.005385  0.000003
 13Cl  2pz        0.000001 -0.000008 -0.004516  0.000023  0.040544  0.000011
 13Cl  2px        0.000000  0.000001  0.001720 -0.000008 -0.015332 -0.000009
 13Cl  2py       -0.000000 -0.000015 -0.003660  0.000022  0.032604 -0.000025
 14C   1s        -0.000000  0.000014 -0.000020 -0.000010  0.000016 -0.000000
 14C   2s         0.000000  0.000023 -0.000439 -0.000019  0.000399 -0.000001
 14C   1pz       -0.000000 -0.000037  0.000275  0.000048 -0.000362 -0.000007
 14C   1px       -0.000000  0.000027 -0.000204 -0.000036  0.000213 -0.000003
 14C   1py       -0.000000  0.000012 -0.000114 -0.000019 -0.000042 -0.000008
 15C   1s        -0.000000  0.000044 -0.000044 -0.000024  0.000024 -0.000021
 15C   2s        -0.000000 -0.000113  0.000127  0.000074 -0.000082  0.000242
 15C   1pz       -0.000000 -0.000035 -0.000033  0.000005  0.000000  0.000107
 15C   1px       -0.000000  0.000054 -0.000011 -0.000037  0.000033 -0.000103
 15C   1py       -0.000000  0.000121 -0.000136 -0.000132  0.000132 -0.000095
 16C   1s        -0.000000  0.000006 -0.000012 -0.000009  0.000009  0.000001
 16C   2s        -0.000000  0.000433 -0.000023 -0.000386  0.000023 -0.000982
 16C   1pz       -0.000000  0.000299 -0.000031 -0.000387  0.000042  0.000317
 16C   1px        0.000000 -0.000146  0.000014  0.000233 -0.000018 -0.000249
 16C   1py        0.000000  0.000191 -0.000023 -0.000099  0.000033  0.000308
 17C   1s         0.000002  0.002504 -0.000045 -0.001776  0.000028 -0.000026
 17C   2s        -0.000000 -0.009021  0.000130  0.011894 -0.000106  0.000105
 17C   1pz       -0.000001 -0.006148 -0.000121  0.007688  0.000115  0.002195
 17C   1px       -0.000001  0.004878  0.000088 -0.006140 -0.000089  0.000844
[...]
  0-1A  -> 17-1A    5.006542   40380.5   247.6   0.003302806   0.02693  -0.09293   0.09848  -0.09270
  0-1A  -> 18-1A    5.038442   40637.8   246.1   0.014364178   0.11637  -0.26374   0.17833  -0.12250
  0-1A  -> 19-1A    5.056153   40780.6   245.2   0.025032112   0.20208  -0.34299   0.25263  -0.14358
  0-1A  -> 20-1A    5.137149   41433.9   241.3   0.000012538   0.00010   0.00897   0.00339  -0.00277
  0-1A  -> 21-1A    5.234436   42218.6   236.9   0.000383358   0.00299   0.05235   0.00388   0.01528
  0-1A  -> 22-1A    5.283706   42616.0   234.7   0.026815798   0.20715   0.40584   0.04971   0.19994
  0-1A  -> 23-1A    5.424342   43750.3   228.6   0.005411177   0.04072  -0.07763  -0.00034   0.18626
  0-1A  -> 24-1A    5.618962   45320.0   220.7   0.002114605   0.01536  -0.08259   0.08886  -0.02540
  0-1A  -> 25-1A    5.784419   46654.5   214.3   0.000253802   0.00179  -0.00915   0.04035  -0.00890
  0-1A  -> 26-1A    5.821715   46955.3   213.0   0.007496507   0.05256   0.00419  -0.22811  -0.02250
  0-1A  -> 27-1A    5.951594   48002.9   208.3   0.004167755   0.02858  -0.13920   0.06933   0.06634
  0-1A  -> 28-1A    6.013807   48504.6   206.2   0.018406892   0.12493   0.19274  -0.24397   0.16811
  0-1A  -> 29-1A    6.070057   48958.3   204.3   0.003836806   0.02580   0.12760  -0.09555   0.01968
  0-1A  -> 30-1A    6.127661   49422.9   202.3   0.002651214   0.01766   0.05414  -0.07045  -0.09883

----------------------------------------------------------------------------------------------------
                     ABSORPTION SPECTRUM VIA TRANSITION VELOCITY DIPOLE MOMENTS    
----------------------------------------------------------------------------------------------------
     Transition      Energy     Energy  Wavelength fosc(P2)      P2        PX        PY        PZ   
                      (eV)      (cm-1)    (nm)                 (au**2)    (au)      (au)      (au)  
----------------------------------------------------------------------------------------------------
  0-1A  ->  1-1A    2.393565   19305.4   518.0   0.000038247   0.00001  -0.00106   0.00050   0.00192
  0-1A  ->  2-1A    2.453734   19790.7   505.3   0.000013392   0.00000   0.00116   0.00042   0.00054
  0-1A  ->  3-1A    3.023022   24382.3   410.1   0.000073635   0.00001   0.00113  -0.00097  -0.00317
  0-1A  ->  4-1A    3.247992   26196.8   381.7   0.000043014   0.00001   0.00223  -0.00160  -0.00041
  0-1A  ->  5-1A    3.307619   26677.7   374.8   0.000002472   0.00000   0.00023   0.00058  -0.00026
  0-1A  ->  6-1A    3.356877   27075.0   369.3   0.000489720   0.00009   0.00008  -0.00822  -0.00481
  0-1A  ->  7-1A    3.595535   28999.9   344.8   0.001878580   0.00037   0.00838  -0.01147  -0.01306
  0-1A  ->  8-1A    3.867802   31195.9   320.6   0.000020098   0.00000   0.00177   0.00092   0.00055
  0-1A  ->  9-1A    4.060762   32752.3   305.3   0.001317007   0.00029  -0.01423   0.00868   0.00413
  0-1A  -> 10-1A    4.093624   33017.3   302.9   0.000123733   0.00003  -0.00450  -0.00276  -0.00012
  0-1A  -> 11-1A    4.169926   33632.7   297.3   0.000037014   0.00001   0.00241   0.00163  -0.00022
  0-1A  -> 12-1A    4.225354   34079.8   293.4   0.030393989   0.00708   0.00498  -0.08372   0.00669
  0-1A  -> 13-1A    4.282806   34543.2   289.5   0.000003742   0.00000   0.00003  -0.00091   0.00022
  0-1A  -> 14-1A    4.582992   36964.3   270.5   0.007925184   0.00200   0.02963   0.03219   0.00939
  0-1A  -> 15-1A    4.876063   39328.1   254.3   0.000515516   0.00014   0.00004  -0.00161   0.01166
  0-1A  -> 16-1A    4.913418   39629.4   252.3   0.000046494   0.00001  -0.00016   0.00057   0.00350
  0-1A  -> 17-1A    5.006542   40380.5   247.6   0.000099442   0.00003   0.00129   0.00436  -0.00260
  0-1A  -> 18-1A    5.038442   40637.8   246.1   0.000864031   0.00024   0.00620  -0.01212   0.00738
  0-1A  -> 19-1A    5.056153   40780.6   245.2   0.002022268   0.00056   0.00441  -0.02059   0.01097
  0-1A  -> 20-1A    5.137149   41433.9   241.3   0.000001175   0.00000   0.00014   0.00017   0.00053
  0-1A  -> 21-1A    5.234436   42218.6   236.9   0.000033820   0.00001  -0.00071  -0.00094  -0.00289
  0-1A  -> 22-1A    5.283706   42616.0   234.7   0.003076278   0.00090  -0.01491  -0.01884  -0.01785
  0-1A  -> 23-1A    5.424342   43750.3   228.6   0.000050834   0.00002  -0.00210   0.00239  -0.00225
  0-1A  -> 24-1A    5.618962   45320.0   220.7   0.000466144   0.00014   0.00651  -0.00883   0.00489
  0-1A  -> 25-1A    5.784419   46654.5   214.3   0.000027926   0.00001   0.00011   0.00085   0.00286
  0-1A  -> 26-1A    5.821715   46955.3   213.0   0.001816888   0.00058   0.00944   0.02094   0.00743
  0-1A  -> 27-1A    5.951594   48002.9   208.3   0.000067997   0.00002   0.00239  -0.00407   0.00016
  0-1A  -> 28-1A    6.013807   48504.6   206.2   0.004805686   0.00159  -0.01413   0.03475  -0.01365
  0-1A  -> 29-1A    6.070057   48958.3   204.3   0.000459661   0.00015  -0.00409   0.00892  -0.00758
  0-1A  -> 30-1A    6.127661   49422.9   202.3   0.000619012   0.00021  -0.00708   0.01207  -0.00364

------------------------------------------------------------------------------------------
                     CD SPECTRUM VIA TRANSITION ELECTRIC DIPOLE MOMENTS    
------------------------------------------------------------------------------------------
     Transition      Energy     Energy  Wavelength    R        MX        MY        MZ   
                      (eV)      (cm-1)    (nm)   (1e40*cgs)   (au)      (au)      (au)  
------------------------------------------------------------------------------------------
  0-1A  ->  1-1A    2.393565   19305.4   518.0    0.28982  -0.00292   0.00314  -0.01623
  0-1A  ->  2-1A    2.453734   19790.7   505.3   -0.02391   0.00213  -0.00218  -0.00130
  0-1A  ->  3-1A    3.023022   24382.3   410.1    0.30367  -0.00704   0.00280   0.01482
  0-1A  ->  4-1A    3.247992   26196.8   381.7   -0.56313   0.00492   0.03354  -0.00041
  0-1A  ->  5-1A    3.307619   26677.7   374.8    0.00249  -0.00077  -0.00080   0.00178
  0-1A  ->  6-1A    3.356877   27075.0   369.3    0.16814  -0.00988  -0.01306   0.06068
  0-1A  ->  7-1A    3.595535   28999.9   344.8   32.17241  -0.02397   0.05701   0.14238
  0-1A  ->  8-1A    3.867802   31195.9   320.6   -0.21072  -0.00028   0.02332   0.00168
  0-1A  ->  9-1A    4.060762   32752.3   305.3    3.03653  -0.04570   0.00557  -0.05665
  0-1A  -> 10-1A    4.093624   33017.3   302.9   -2.31386  -0.00930  -0.04408  -0.01074
  0-1A  -> 11-1A    4.169926   33632.7   297.3    0.10954  -0.00345   0.00098   0.00074
  0-1A  -> 12-1A    4.225354   34079.8   293.4  -35.47557  -0.00346   0.04689   0.04894
  0-1A  -> 13-1A    4.282806   34543.2   289.5    0.01261   0.00228  -0.00258   0.00001
  0-1A  -> 14-1A    4.582992   36964.3   270.5    1.76729   0.07372  -0.01155  -0.06615
  0-1A  -> 15-1A    4.876063   39328.1   254.3   18.51863  -0.10567   0.13294   0.22316
  0-1A  -> 16-1A    4.913418   39629.4   252.3  -20.98514   0.20869   0.31248   0.27887
  0-1A  -> 17-1A    5.006542   40380.5   247.6   -0.31768   0.08665  -0.00719  -0.10178
  0-1A  -> 18-1A    5.038442   40637.8   246.1    1.57869   0.03581   0.02608  -0.01180
  0-1A  -> 19-1A    5.056153   40780.6   245.2    1.24794   0.03255   0.02457  -0.01609
  0-1A  -> 20-1A    5.137149   41433.9   241.3   -0.00775  -0.00070   0.00542  -0.00157
  0-1A  -> 21-1A    5.234436   42218.6   236.9    0.54082  -0.01843  -0.00874  -0.00971
  0-1A  -> 22-1A    5.283706   42616.0   234.7   12.53167  -0.10012  -0.03169   0.07817
  0-1A  -> 23-1A    5.424342   43750.3   228.6    1.55680  -0.06449   0.01308  -0.04459
  0-1A  -> 24-1A    5.618962   45320.0   220.7   -0.25347  -0.01128   0.00156   0.02097
  0-1A  -> 25-1A    5.784419   46654.5   214.3    0.40426  -0.02763  -0.03295  -0.02463
  0-1A  -> 26-1A    5.821715   46955.3   213.0   -0.04497  -0.01223   0.00061  -0.01266
  0-1A  -> 27-1A    5.951594   48002.9   208.3   -0.67869   0.00158   0.03414  -0.01068
  0-1A  -> 28-1A    6.013807   48504.6   206.2   -3.01128   0.04493  -0.03286  -0.06120
  0-1A  -> 29-1A    6.070057   48958.3   204.3   -1.45334  -0.00452  -0.04480  -0.03158
  0-1A  -> 30-1A    6.127661   49422.9   202.3   -1.94655   0.02362  -0.00305  -0.02666

------------------------------------------------------------------------------------------
                     CD SPECTRUM VIA TRANSITION VELOCITY DIPOLE MOMENTS    
------------------------------------------------------------------------------------------
     Transition      Energy     Energy  Wavelength    R        MX        MY        MZ   
                      (eV)      (cm-1)    (nm)   (1e40*cgs)   (au)      (au)      (au)  
------------------------------------------------------------------------------------------
  0-1A  ->  1-1A    2.393565   19305.4   518.0   -0.14173  -0.00292   0.00314  -0.01623
  0-1A  ->  2-1A    2.453734   19790.7   505.3    0.00444   0.00213  -0.00218  -0.00130
  0-1A  ->  3-1A    3.023022   24382.3   410.1   -0.24460  -0.00704   0.00280   0.01482
  0-1A  ->  4-1A    3.247992   26196.8   381.7   -0.16753   0.00492   0.03354  -0.00041
  0-1A  ->  5-1A    3.307619   26677.7   374.8   -0.00425  -0.00077  -0.00080   0.00178
  0-1A  ->  6-1A    3.356877   27075.0   369.3   -0.70757  -0.00988  -0.01306   0.06068
  0-1A  ->  7-1A    3.595535   28999.9   344.8   -9.68416  -0.02397   0.05701   0.14238
  0-1A  ->  8-1A    3.867802   31195.9   320.6    0.07231  -0.00028   0.02332   0.00168
  0-1A  ->  9-1A    4.060762   32752.3   305.3    1.46725  -0.04570   0.00557  -0.05665
  0-1A  -> 10-1A    4.093624   33017.3   302.9    0.51739  -0.00930  -0.04408  -0.01074
  0-1A  -> 11-1A    4.169926   33632.7   297.3   -0.02116  -0.00345   0.00098   0.00074
  0-1A  -> 12-1A    4.225354   34079.8   293.4  -10.97808  -0.00346   0.04689   0.04894
  0-1A  -> 13-1A    4.282806   34543.2   289.5    0.00726   0.00228  -0.00258   0.00001
  0-1A  -> 14-1A    4.582992   36964.3   270.5    3.33604   0.07372  -0.01155  -0.06615
  0-1A  -> 15-1A    4.876063   39328.1   254.3    6.27171  -0.10567   0.13294   0.22316
  0-1A  -> 16-1A    4.913418   39629.4   252.3    2.92172   0.20869   0.31248   0.27887
  0-1A  -> 17-1A    5.006542   40380.5   247.6    0.88524   0.08665  -0.00719  -0.10178
  0-1A  -> 18-1A    5.038442   40637.8   246.1   -0.46146   0.03581   0.02608  -0.01180
  0-1A  -> 19-1A    5.056153   40780.6   245.2   -1.36726   0.03255   0.02457  -0.01609
  0-1A  -> 20-1A    5.137149   41433.9   241.3    0.00000  -0.00070   0.00542  -0.00157
  0-1A  -> 21-1A    5.234436   42218.6   236.9    0.12100  -0.01843  -0.00874  -0.00971
  0-1A  -> 22-1A    5.283706   42616.0   234.7    1.68864  -0.10012  -0.03169   0.07817
  0-1A  -> 23-1A    5.424342   43750.3   228.6    0.63169  -0.06449   0.01308  -0.04459
  0-1A  -> 24-1A    5.618962   45320.0   220.7    0.03517  -0.01128   0.00156   0.02097
  0-1A  -> 25-1A    5.784419   46654.5   214.3   -0.22486  -0.02763  -0.03295  -0.02463
  0-1A  -> 26-1A    5.821715   46955.3   213.0   -0.43383  -0.01223   0.00061  -0.01266
  0-1A  -> 27-1A    5.951594   48002.9   208.3   -0.29526   0.00158   0.03414  -0.01068
  0-1A  -> 28-1A    6.013807   48504.6   206.2   -2.00775   0.04493  -0.03286  -0.06120
  0-1A  -> 29-1A    6.070057   48958.3   204.3   -0.29909  -0.00452  -0.04480  -0.03158
  0-1A  -> 30-1A    6.127661   49422.9   202.3   -0.22411   0.02362  -0.00305  -0.02666

Total run time:       25.351 sec

           *** ORCA-CIS/TD-DFT FINISHED WITHOUT ERROR ***
-----------------------
CIS/TD-DFT TOTAL ENERGY
-----------------------

    E(SCF)  =  -1645.069942479 Eh
    DE(CIS) =      0.087961906 Eh (Root  1)
    ----------------------------- ---------
    E(tot)  =  -1644.981980573 Eh


Maximum memory used throughout the entire CIS-calculation: 90.1 MB
=> NOW LEAVING ORCA_CIS

-------------------------   --------------------
FINAL SINGLE POINT ENERGY     -1644.981980572717
-------------------------   --------------------


------------------------------------------------------------------------------
                              ORCA PROPERTY CALCULATIONS
------------------------------------------------------------------------------

GBWName                                 ... Diclofenac\Diclofenac_PBE_STO-3G\Diclofenac_PBE_STO-3G.orcainp.gbw
Number of atoms                         ...     30
Number of basis functions               ...    114
Max core memory                         ...   1024 MB

Electric properties:
Dipole moment                           ... YES
Quadrupole moment                       ...  NO
Static polarizability (Dipole/Dipole)   ...  NO
Static polarizability (Dipole/Quad.)    ...  NO
Static polarizability (Quad./Quad.)     ...  NO
Static polarizability (Velocity)        ...  NO

Atomic electric properties:
Dipole moment                           ...  NO
Quadrupole moment                       ...  NO
Static polarizability                   ...  NO

Choice of electric origin               ... Center of mass
Position of electric origin             ...     9.214768     4.197344    -2.586739

General magnetic properties:
Magnetizability                         ...  NO

EPR properties:
g-Tensor (aka g-matrix)                 ...  NO
Zero-Field splitting spin-orbit         ...  NO
Zero-field splitting spin-spin          ...  NO
Hyperfine couplings                     ...  NO (   0 nuclei)
Quadrupole couplings                    ...  NO (   0 nuclei)
Contact density                         ...  NO (   0 nuclei)

NMR properties:
Chemical shifts                         ...  NO (   0 nuclei)
Spin-rotation constants                 ...  NO (   0 nuclei)
Spin-spin couplings                     ...  NO (   0 nuclei,    0 pairs)

Choice of magnetic origin               ... GIAO
Position of magnetic origin             ...     0.000000     0.000000     0.000000

Properties with geometric perturbations:
SCF Hessian                             ...  NO
IR spectrum                             ...  NO
VCD spectrum                            ...  NO
X-ray spectroscopy properties:
SCF XES/XAS/RIXS spectra                ...  NO


-------------
DIPOLE MOMENT
-------------

Method             : SCF
Type of density    : Electron Density
Multiplicity       :   1
Irrep              :   0
Energy             : -1645.0699424790836929 Eh
Relativity type    : 
Basis              : AO
                                X                 Y                 Z
Electronic contribution:     -4.035321875       8.810090319      -1.498672219
Nuclear contribution   :      5.237828397      -6.880437263       3.522069716
                        -----------------------------------------
Total Dipole Moment    :      1.202506522       1.929653056       2.023397496
                        -----------------------------------------
Magnitude (a.u.)       :      3.043636029
Magnitude (Debye)      :      7.736307972



--------------------
Rotational spectrum 
--------------------
 
Rotational constants in cm-1:             0.013498             0.007476             0.007318 
Rotational constants in MHz :           404.672282           224.114547           219.389909 

Dipole components along the rotational axes: 
x,y,z [a.u.] :     2.433272    -0.326560     1.798962 
x,y,z [Debye]:     6.184887    -0.830050     4.572598 

 

Dipole moment calculation done in   0.0 sec 

Maximum memory used throughout the entire PROP-calculation: 8.5 MB

--------------------------------
SUGGESTED CITATIONS FOR THIS RUN
--------------------------------

Below you find a list of papers that are relevant to this ORCA run
We neither can nor want to force you to cite these papers, but we appreciate if you do
You receive ORCA, which is the product of decades of hard work by many enthusiastic individuals, for free
The only thing we kindly ask in return is that you cite our papers,
We deeply appreciate it, if you show your appreciation for ORCA by not just citing the generic ORCA reference.

Please note that relegating all ORCA citations to the supporting information does *not* help us.
SI sections are not indexed - citations you put there will not count into any citation statistics
But we need these citations in order to attract the funding resources that allow us to do what we are doing

Therefore, if you are a happy ORCA user, please consider citing a few of the papers listed below in the main body of your paper

In addition to the list printed below, the program has created the file Diclofenac\Diclofenac_PBE_STO-3G\Diclofenac_PBE_STO-3G.orcainp.bibtex that contains the list in bibtex format
You can import this file easily into all common literature databanks and citation aid programs


List of essential papers. We consider these as the minimum necessary citations

  1. Neese,F.
     Software update: the ORCA program system, version 5.0
     WIRES Comput. Molec. Sci., 2022 12(1)e1606
     doi.org/10.1002/wcms.1606

List of papers to cite with high priority. The work reported in these papers was absolutely
necessary for this run to complete.
Our perspective: the developers of density functionals and basis sets usually get cited in chemistry papers
Good! But without the algorithms to do something with them, the functionals or basis sets would not do anything.
Hence, in our opinion, the algorithm design and method developments papers are equally worthy of getting cited

  1. Neese,F.; Olbrich,G.
     Efficient use of the resolution of the identity approximation in time-dependent density functional calculations with hybrid density functionals
     Chem. Phys. Lett., 2002 362 170-178
     doi.org/10.1016/s0009-2614(02)01053-9
  2. Neese,F.
     An improvement of the resolution of the identity approximation for the formation of the Coulomb matrix
     J. Comp. Chem., 2003 24(14)1740-1747
     doi.org/10.1002/jcc.10318
  3. Garcia-Rates,M.; Neese,F.
     Effect of the Solute Cavity on the Solvation Energy and its Derivatives within the Framework of the Gaussian Charge Scheme
     J. Comput. Chem., 2020 41 922-939
     doi.org/10.1002/jcc.26139
  4. Neese,F.
     The SHARK Integral Generation and Digestion System
     J. Comp. Chem., 2022  1-16
     doi.org/10.1002/jcc.26942

List of suggested additional citations. These are papers that are important in the 'surrounding' of 
of this run, or papers that preceded the highly important papers. If you like your results we are grateful for a citation.

  1. Neese,F.
     The ORCA program system
     WIRES Comput. Molec. Sci., 2012 2(1)73-78
     doi.org/10.1002/wcms.81
  2. Neese,F.
     Software update: the ORCA program system, version 4.0
     WIRES Comput. Molec. Sci., 2018 8(1)1-6
     doi.org/10.1002/wcms.1327
  3. Neese,F.; Wennmohs,F.; Becker,U.; Riplinger,C.
     The ORCA quantum chemistry program package
     J. Chem. Phys., 2020 152 Art. No. L224108
     doi.org/10.1063/5.0004608

List of optional additional citations

  1. Neese,F.
     Approximate second-order SCF convergence for spin unrestricted wavefunctions
     Chem. Phys. Lett., 2000 325(1-3)93-98
     doi.org/10.1016/s0009-2614(00)00662-x

Timings for individual modules:

Sum of individual times          ...       28.978 sec (=   0.483 min)
Startup calculation              ...        0.884 sec (=   0.015 min)   3.1 %
SCF iterations                   ...        2.560 sec (=   0.043 min)   8.8 %
Property integrals               ...        0.071 sec (=   0.001 min)   0.2 %
Property calculations            ...        0.072 sec (=   0.001 min)   0.2 %
CIS module                       ...       25.391 sec (=   0.423 min)  87.6 %
                             ****ORCA TERMINATED NORMALLY****
TOTAL RUN TIME: 0 days 0 hours 0 minutes 29 seconds 104 msec
