
                                 *****************
                                 * O   R   C   A *
                                 *****************

                                            #,                                       
                                            ###                                      
                                            ####                                     
                                            #####                                    
                                            ######                                   
                                           ########,                                 
                                     ,,################,,,,,                         
                               ,,#################################,,                 
                          ,,##########################################,,             
                       ,#########################################, ''#####,          
                    ,#############################################,,   '####,        
                  ,##################################################,,,,####,       
                ,###########''''           ''''###############################       
              ,#####''   ,,,,##########,,,,          '''####'''          '####       
            ,##' ,,,,###########################,,,                        '##       
           ' ,,###''''                  '''############,,,                           
         ,,##''                                '''############,,,,        ,,,,,,###''
      ,#''                                            '''#######################'''  
     '                                                          ''''####''''         
             ,#######,   #######,   ,#######,      ##                                
            ,#'     '#,  ##    ##  ,#'     '#,    #''#        ,####,   ,####,        
            ##       ##  ##   ,#'  ##            #'  '#       #'       #'  '#        
            ##       ##  #######   ##           ,######,      #####,   #    #        
            '#,     ,#'  ##    ##  '#,     ,#' ,#      #,     #,   #   #,  ,#        
             '#######'   ##     ##  '#######'  #'      '#     '####' # '####'        



                #########################################################
                #                        -***-                          #
                #          Department of theory and spectroscopy        #
                #                                                       #
                #                      Frank Neese                      #
                #                                                       #
                #     Directorship, Architecture, Infrastructure        #
                #                    SHARK, DRIVERS                     #
                #        Core code/Algorithms in most modules           #
                #                                                       #
                #        Max Planck Institute fuer Kohlenforschung      #
                #                Kaiser Wilhelm Platz 1                 #
                #                 D-45470 Muelheim/Ruhr                 #
                #                      Germany                          #
                #                                                       #
                #                  All rights reserved                  #
                #                        -***-                          #
                #########################################################


                         Program Version 6.0.0  -   RELEASE   -


 With contributions from (in alphabetic order):
   Daniel Aravena         : Magnetic Suceptibility
   Michael Atanasov       : Ab Initio Ligand Field Theory (pilot matlab implementation)
   Alexander A. Auer      : GIAO ZORA, VPT2 properties, NMR spectrum
   Ute Becker             : All parallelization in ORCA, NUMFREQ, NUMCALC
   Giovanni Bistoni       : ED, misc. LED, open-shell LED, HFLD
   Martin Brehm           : Molecular dynamics
   Dmytro Bykov           : pre 5.0 version of the SCF Hessian
   Marcos Casanova-Páez   : Triplet and SCS-CIS(D). UHF-(DLPNO)-IP/EA/STEOM-CCSD. UHF-CVS-IP/STEOM-CCSD
   Vijay G. Chilkuri      : MRCI spin determinant printing, contributions to CSF-ICE
   Pauline Colinet        : FMM embedding
   Dipayan Datta          : RHF DLPNO-CCSD density
   Achintya Kumar Dutta   : EOM-CC, STEOM-CC
   Nicolas Foglia         : Exact transition moments, OPA infrastructure, MCD improvements
   Dmitry Ganyushin       : Spin-Orbit,Spin-Spin,Magnetic field MRCI
   Miquel Garcia          : C-PCM and meta-GGA Hessian, CCSD/C-PCM, Gaussian charge scheme
   Tiago L. C. Gouveia    : GS-ROHF, GS-ROCIS
   Yang Guo               : DLPNO-NEVPT2, F12-NEVPT2, CIM, IAO-localization
   Andreas Hansen         : Spin unrestricted coupled pair/coupled cluster methods
   Ingolf Harden          : AUTO-CI MPn and infrastructure 
   Benjamin Helmich-Paris : MC-RPA, TRAH-(SCF,CASSCF), AVAS, COSX integrals, SCF dyn. polar.
   Lee Huntington         : MR-EOM, pCC
   Robert Izsak           : Overlap fitted RIJCOSX, COSX-SCS-MP3, EOM
   Riya Kayal             : Wick's Theorem for AUTO-CI, AUTO-CI UHF-CCSDT
   Emily Kempfer          : AUTO-CI, RHF CISDT and CCSDT
   Christian Kollmar      : KDIIS, OOCD, Brueckner-CCSD(T), CCSD density, CASPT2, CASPT2-K, improved NEVPT2
   Axel Koslowski         : Symmetry handling
   Simone Kossmann        : Meta GGA functionals, TD-DFT gradient, OOMP2, (MP2 Hessian; deprecated post 5.0)
   Lucas Lang             : DCDCAS
   Marvin Lechner         : AUTO-CI (C++ implementation), FIC-MRCC
   Spencer Leger          : CASSCF response
   Dagmar Lenk            : GEPOL surface, SMD, ORCA-2-JSON
   Dimitrios Liakos       : Extrapolation schemes; Compound Job, initial MDCI parallelization
   Dimitrios Manganas     : Further ROCIS development; embedding schemes. LFT, Crystal Embedding
   Dimitrios Pantazis     : SARC Basis sets
   Anastasios Papadopoulos: AUTO-CI, single reference methods and gradients
   Taras Petrenko         : pre 6.0 DFT Hessian and TD-DFT gradient, (ASA, deprecated), ECA, 1-Electron XAS/XES, NRVS
   Peter Pinski           : DLPNO-MP2, DLPNO-MP2 Gradient
   Christoph Reimann      : Effective Core Potentials
   Marius Retegan         : Local ZFS, SOC
   Christoph Riplinger    : Optimizer, TS searches, QM/MM, DLPNO-CCSD(T), (RO)-DLPNO pert. Triples
   Michael Roemelt        : Original ROCIS implementation
   Masaaki Saitow         : Open-shell DLPNO-CCSD energy and density
   Barbara Sandhoefer     : DKH picture change effects
   Kantharuban Sivalingam : CASSCF convergence/infrastructure, NEVPT2 and variants, FIC-MRCI
   Bernardo de Souza      : ESD, SOC TD-DFT
   Georgi Stoychev        : AutoAux, RI-MP2 NMR, DLPNO-MP2 response, X2C
   Van Anh Tran           : RI-MP2 g-tensors
   Willem Van den Heuvel  : Paramagnetic NMR
   Zikuan Wang            : NOTCH, Electric field optimization 
   Frank Wennmohs         : Technical directorship and infrastructure
   Hang Xu                : AUTO-CI-Response properties 


 We gratefully acknowledge several colleagues who have allowed us to
 interface, adapt or use parts of their codes:
   Stefan Grimme, W. Hujo, H. Kruse, P. Pracht,  : VdW corrections, initial TS optimization,
                  C. Bannwarth, S. Ehlert,         DFT functionals, gCP, sTDA/sTD-DF
                  L. Wittmann, M. Mueller
   Ed Valeev, F. Pavosevic, A. Kumar             : LibInt (2-el integral package), F12 methods
   Garnet Chan, S. Sharma, J. Yang, R. Olivares  : DMRG
   Ulf Ekstrom                                   : XCFun DFT Library
   Mihaly Kallay                                 : mrcc  (arbitrary order and MRCC methods)
   Frank Weinhold                                : gennbo (NPA and NBO analysis)
   Simon Mueller                                 : openCOSMO-RS
   Christopher J. Cramer and Donald G. Truhlar   : smd solvation model
   Lars Goerigk                                  : TD-DFT with DH, B97 family of functionals
   V. Asgeirsson, H. Jonsson                     : NEB implementation
   FAccTs GmbH                                   : IRC, NEB, NEB-TS, DLPNO-Multilevel, CI-OPT
                                                   MM, QMMM, 2- and 3-layer-ONIOM, Crystal-QMMM,
                                                   LR-CPCM, SF, NACMEs, symmetry and pop. for TD-DFT,
                                                   nearIR, NL-DFT gradient (VV10), updates on ESD,
                                                   ML-optimized integration grids, MBIS, APM,
                                                   GOAT, DOCKER, SOLVATOR, interface openCOSMO-RS
   S Lehtola, MJT Oliveira, MAL Marques          : LibXC Library
   Liviu Ungur et al                             : ANISO software


 Your calculation uses the libint2 library for the computation of 2-el integrals
 For citations please refer to: http://libint.valeyev.net

 Your ORCA version has been built with support for libXC version: 6.2.2
 For citations please refer to: https://libxc.gitlab.io

 This ORCA versions uses:
   CBLAS   interface :  Fast vector & matrix operations
   LAPACKE interface :  Fast linear algebra routines
   Shared memory     :  Shared parallel matrices


Warning: RI is on but no J-basis has been assigned. Assigning Def2/J (nothing to worry about!)
================================================================================

----- Orbital basis set information -----
Your calculation utilizes the basis: STO-3G
   H-Ne       : W. J. Hehre, R. F. Stewart and J. A. Pople, J. Chem. Phys. 2657 (1969).
   Na-Ar      : W. J. Hehre, R. Ditchfield, R. F. Stewart and J. A. Pople, J. Chem. Phys. 2769 (1970).
   K,Ca,Ga-Kr : W. J. Pietro, B. A. Levy, W. J. Hehre and R. F. Stewart, J. Am. Chem. Soc. 19, 2225 (1980).
   Sc-Zn,Y-Cd : W. J. Pietro and W. J. Hehre, J. Comp. Chem. 4, 241 (1983).

----- AuxJ basis set information -----
Your calculation utilizes the auxiliary basis: def2/J
   F. Weigend, Phys. Chem. Chem. Phys. 8, 1057 (2006).

================================================================================
                                        WARNINGS
                       Please study these warnings very carefully!
================================================================================


WARNING: Geometry Optimization
  ===> : Switching off AutoStart
         For restart on a previous wavefunction, please use MOREAD

================================================================================
                                       INPUT FILE
================================================================================
NAME = Diclofenac\Diclofenac_PBE_STO-3G\Diclofenac_PBE_STO-3G.orcainp
|  1> # ORCA input file
|  2> # 
|  3> !PBE STO-3G Opt CPCM(WATER)
|  4> * xyz 0 1
|  5>    O        3.20532         0.77222        -3.48165
|  6>    C        3.01992        -0.42363        -2.87260
|  7>    O        2.60439        -1.40765        -3.47515
|  8>    C        3.32048        -0.40706        -1.39156
|  9>    C        4.77373        -0.12881        -1.08244
| 10>    C        5.66943        -1.21342        -1.10651
| 11>    C        7.03233        -1.02123        -0.89021
| 12>    C        7.51453         0.25274        -0.62393
| 13>    C        6.63498         1.33431        -0.58478
| 14>    C        5.26576         1.17391        -0.86041
| 15>    N        4.37299         2.29124        -0.86707
| 16>    C        4.78516         3.66554        -0.98266
| 17>    C        5.63181         4.12934        -2.01264
| 18>   Cl        6.08405         3.13842        -3.35906
| 19>    C        6.11423         5.44479        -2.01214
| 20>    C        5.70652         6.34622        -1.03224
| 21>    C        4.79176         5.94154        -0.06385
| 22>    C        4.33591         4.61788        -0.04136
| 23>   Cl        3.21047         4.17011         1.19560
| 24>    H        3.58943         1.44889        -2.88309
| 25>    H        3.04405        -1.38942        -0.98093
| 26>    H        2.64728         0.30494        -0.90399
| 27>    H        5.30989        -2.22054        -1.31624
| 28>    H        7.71565        -1.86518        -0.93248
| 29>    H        8.57673         0.41196        -0.45771
| 30>    H        7.04962         2.31347        -0.36106
| 31>    H        3.79458         2.21395        -0.02113
| 32>    H        6.80603         5.77305        -2.78574
| 33>    H        6.08452         7.36622        -1.03898
| 34>    H        4.44479         6.65940         0.67650
| 35> *
| 36> 
| 37>                          ****END OF INPUT****
================================================================================

                       *****************************
                       * Geometry Optimization Run *
                       *****************************

Geometry optimization settings:
Update method            Update   .... BFGS
Choice of coordinates    CoordSys .... (2022) Redundant Internals
Initial Hessian          InHess   .... Almloef's Model
Max. no of cycles        MaxIter  .... 90

Convergence Tolerances:
Energy Change            TolE     ....  5.0000e-06 Eh
Max. Gradient            TolMAXG  ....  3.0000e-04 Eh/bohr
RMS Gradient             TolRMSG  ....  1.0000e-04 Eh/bohr
Max. Displacement        TolMAXD  ....  4.0000e-03 bohr
RMS Displacement         TolRMSD  ....  2.0000e-03 bohr
Strict Convergence                .... False

------------------------------------------------------------------------------
                        ORCA OPTIMIZATION COORDINATE SETUP
------------------------------------------------------------------------------

The optimization will be done in redundant internal coordinates (2022)
Making redundant internal coordinates   ...  (2022 redundants) done
Evaluating the initial hessian          ...  (Almloef) done
Evaluating the coordinates              ...  done
Calculating the B-matrix                .... done
Calculating the G-matrix                .... done
Diagonalizing the G-matrix              .... done
Small eigenvalue found = 5.495e-03
Small eigenvalue found = 1.592e-02
Small eigenvalue found = 2.020e-02
The first mode is                       ....   66
The number of degrees of freedom        ....   84

    -----------------------------------------------------------------
                    Redundant Internal Coordinates


    -----------------------------------------------------------------
         Definition                    Initial Value    Approx d2E/dq
    -----------------------------------------------------------------
      1. B(C   1,O   0)                  1.3548         0.636942   
      2. B(O   2,C   1)                  1.2264         1.020724   
      3. B(C   3,C   1)                  1.5113         0.400110   
      4. B(C   4,C   3)                  1.5116         0.399709   
      5. B(C   5,C   4)                  1.4069         0.587286   
      6. B(C   6,C   5)                  1.3933         0.617321   
      7. B(C   7,C   6)                  1.3880         0.629506   
      8. B(C   8,C   7)                  1.3946         0.614306   
      9. B(C   9,C   8)                  1.4059         0.589417   
     10. B(C   9,C   4)                  1.4101         0.580257   
     11. B(N  10,C   9)                  1.4302         0.482746   
     12. B(C  11,N  10)                  1.4394         0.466681   
     13. B(C  12,C  11)                  1.4117         0.577006   
     14. B(Cl 13,C  12)                  1.7318         0.399338   
     15. B(C  14,C  12)                  1.4011         0.599787   
     16. B(C  15,C  14)                  1.3925         0.619124   
     17. B(C  16,C  15)                  1.3922         0.619677   
     18. B(C  17,C  16)                  1.4001         0.601959   
     19. B(C  17,C  11)                  1.4124         0.575479   
     20. B(Cl 18,C  17)                  1.7312         0.400232   
     21. B(H  19,O   0)                  0.9817         0.480150   
     22. B(H  19,N  10)                  2.3212         0.003502   
     23. B(H  20,C   3)                  1.1000         0.347076   
     24. B(H  21,C   3)                  1.0945         0.354234   
     25. B(H  22,C   5)                  1.0897         0.360436   
     26. B(H  23,C   6)                  1.0867         0.364463   
     27. B(H  24,C   7)                  1.0869         0.364288   
     28. B(H  25,C   8)                  1.0866         0.364606   
     29. B(H  26,N  10)                  1.0277         0.405482   
     30. B(H  26,Cl 18)                  2.3766         0.007157   
     31. B(H  27,C  14)                  1.0885         0.362110   
     32. B(H  28,C  15)                  1.0878         0.363009   
     33. B(H  29,C  16)                  1.0880         0.362703   
     34. A(C   1,O   0,H  19)          112.8226         0.366784   
     35. A(O   0,C   1,O   2)          122.2589         0.471280   
     36. A(O   0,C   1,C   3)          113.8073         0.400825   
     37. A(O   2,C   1,C   3)          123.8939         0.435950   
     38. A(C   4,C   3,H  20)          109.2471         0.325964   
     39. A(C   4,C   3,H  21)          112.3646         0.327061   
     40. A(C   1,C   3,H  20)          107.8210         0.326018   
     41. A(C   1,C   3,H  21)          108.7456         0.327115   
     42. A(H  20,C   3,H  21)          105.0755         0.288421   
     43. A(C   1,C   3,C   4)          113.1797         0.371943   
     44. A(C   5,C   4,C   9)          119.5227         0.424785   
     45. A(C   3,C   4,C   9)          122.5281         0.396779   
     46. A(C   3,C   4,C   5)          117.8192         0.397619   
     47. A(C   4,C   5,C   6)          120.9164         0.429524   
     48. A(C   6,C   5,H  22)          118.6918         0.352706   
     49. A(C   4,C   5,H  22)          120.3798         0.349746   
     50. A(C   5,C   6,C   7)          119.7515         0.434917   
     51. A(C   5,C   6,H  23)          120.1269         0.353370   
     52. A(C   7,C   6,H  23)          120.1213         0.354542   
     53. A(C   8,C   7,H  24)          119.8986         0.353049   
     54. A(C   6,C   7,H  24)          120.2214         0.354513   
     55. A(C   6,C   7,C   8)          119.8759         0.434534   
     56. A(C   7,C   8,C   9)          121.3491         0.429426   
     57. A(C   9,C   8,H  25)          120.9853         0.350640   
     58. A(C   7,C   8,H  25)          117.6432         0.353101   
     59. A(C   8,C   9,N  10)          121.3141         0.408701   
     60. A(C   4,C   9,N  10)          120.2110         0.407570   
     61. A(C   4,C   9,C   8)          118.4311         0.425061   
     62. A(C   9,N  10,C  11)          124.5774         0.389750   
     63. A(C   9,N  10,H  26)          106.7825         0.340099   
     64. A(C  11,N  10,H  26)          107.4016         0.338183   
     65. A(C  12,C  11,C  17)          117.0973         0.422821   
     66. A(N  10,C  11,C  17)          119.9453         0.404548   
     67. A(N  10,C  11,C  12)          122.9571         0.404737   
     68. A(Cl 13,C  12,C  14)          116.5871         0.416913   
     69. A(C  11,C  12,C  14)          120.9775         0.425961   
     70. A(C  11,C  12,Cl 13)          122.4030         0.414052   
     71. A(C  15,C  14,H  27)          119.4061         0.353157   
     72. A(C  12,C  14,H  27)          120.1134         0.351267   
     73. A(C  12,C  14,C  15)          120.4783         0.431377   
     74. A(C  16,C  15,H  28)          120.3428         0.353359   
     75. A(C  14,C  15,H  28)          120.0595         0.353305   
     76. A(C  14,C  15,C  16)          119.5831         0.433915   
     77. A(C  15,C  16,H  29)          119.4092         0.353308   
     78. A(C  15,C  16,C  17)          119.9922         0.431727   
     79. A(C  17,C  16,H  29)          120.5961         0.351579   
     80. A(C  16,C  17,Cl 18)          117.8813         0.417348   
     81. A(C  11,C  17,Cl 18)          120.5682         0.414021   
     82. A(C  11,C  17,C  16)          121.5462         0.426035   
     83. D(C   3,C   1,O   0,H  19)      5.4575         0.029886   
     84. D(O   2,C   1,O   0,H  19)   -176.7577         0.029886   
     85. D(C   4,C   3,C   1,O   0)    -64.5811         0.011880   
     86. D(H  21,C   3,C   1,O   0)     61.0391         0.011880   
     87. D(H  20,C   3,C   1,O   2)     -3.2758         0.011880   
     88. D(H  20,C   3,C   1,O   0)    174.4674         0.011880   
     89. D(C   4,C   3,C   1,O   2)    117.6757         0.011880   
     90. D(C   5,C   4,C   3,H  21)    152.1542         0.011858   
     91. D(C   9,C   4,C   3,H  20)   -148.2199         0.011858   
     92. D(C   9,C   4,C   3,C   1)     91.6388         0.011858   
     93. D(C   5,C   4,C   3,H  20)     35.9509         0.011858   
     94. D(C   5,C   4,C   3,C   1)    -84.1904         0.011858   
     95. D(H  22,C   5,C   4,C   3)     -1.5999         0.023725   
     96. D(C   6,C   5,C   4,C   3)    177.1212         0.023725   
     97. D(C   6,C   5,C   4,C   9)      1.1621         0.023725   
     98. D(H  22,C   5,C   4,C   9)   -177.5589         0.023725   
     99. D(H  23,C   6,C   5,H  22)      0.0370         0.026356   
    100. D(H  23,C   6,C   5,C   4)   -178.7053         0.026356   
    101. D(C   7,C   6,C   5,H  22)    179.8719         0.026356   
    102. D(C   7,C   6,C   5,C   4)      1.1297         0.026356   
    103. D(H  24,C   7,C   6,H  23)      0.0644         0.027473   
    104. D(H  24,C   7,C   6,C   5)   -179.7706         0.027473   
    105. D(C   8,C   7,C   6,H  23)    179.3269         0.027473   
    106. D(C   8,C   7,C   6,C   5)     -0.5081         0.027473   
    107. D(H  25,C   8,C   7,H  24)     -1.4733         0.026084   
    108. D(H  25,C   8,C   7,C   6)    179.2618         0.026084   
    109. D(C   9,C   8,C   7,H  24)    176.8201         0.026084   
    110. D(C   9,C   8,C   7,C   6)     -2.4448         0.026084   
    111. D(N  10,C   9,C   4,C   3)      2.6341         0.023133   
    112. D(C   8,C   9,C   4,C   5)     -3.9796         0.023133   
    113. D(C   8,C   9,C   4,C   3)   -179.7404         0.023133   
    114. D(N  10,C   9,C   8,H  25)      0.5064         0.023906   
    115. D(N  10,C   9,C   8,C   7)   -177.7301         0.023906   
    116. D(C   4,C   9,C   8,H  25)   -177.0918         0.023906   
    117. D(C   4,C   9,C   8,C   7)      4.6717         0.023906   
    118. D(N  10,C   9,C   4,C   5)    178.3949         0.023133   
    119. D(H  26,N  10,C   9,C   8)   -107.4504         0.019940   
    120. D(H  26,N  10,C   9,C   4)     70.1055         0.019940   
    121. D(C  11,N  10,C   9,C   8)     18.5125         0.019940   
    122. D(C  11,N  10,C   9,C   4)   -163.9316         0.019940   
    123. D(C  17,C  11,N  10,H  26)     -2.2690         0.018602   
    124. D(C  17,C  11,N  10,C   9)   -127.9682         0.018602   
    125. D(C  12,C  11,N  10,H  26)    177.9402         0.018602   
    126. D(C  12,C  11,N  10,C   9)     52.2409         0.018602   
    127. D(C  14,C  12,C  11,C  17)      6.5887         0.022863   
    128. D(C  14,C  12,C  11,N  10)   -173.6148         0.022863   
    129. D(Cl 13,C  12,C  11,C  17)   -171.2697         0.022863   
    130. D(Cl 13,C  12,C  11,N  10)      8.5267         0.022863   
    131. D(H  27,C  14,C  12,Cl 13)     -5.0999         0.024799   
    132. D(H  27,C  14,C  12,C  11)    176.9220         0.024799   
    133. D(C  15,C  14,C  12,Cl 13)    174.3526         0.024799   
    134. D(C  15,C  14,C  12,C  11)     -3.6256         0.024799   
    135. D(H  28,C  15,C  14,H  27)     -0.4765         0.026520   
    136. D(H  28,C  15,C  14,C  12)   -179.9328         0.026520   
    137. D(C  16,C  15,C  14,H  27)    178.1377         0.026520   
    138. D(C  16,C  15,C  14,C  12)     -1.3186         0.026520   
    139. D(H  29,C  16,C  15,H  28)      1.0447         0.026570   
    140. D(H  29,C  16,C  15,C  14)   -177.5655         0.026570   
    141. D(C  17,C  16,C  15,H  28)   -178.3772         0.026570   
    142. D(C  17,C  16,C  15,C  14)      3.0125         0.026570   
    143. D(Cl 18,C  17,C  11,N  10)     -3.9322         0.022737   
    144. D(C  16,C  17,C  11,C  12)     -4.9004         0.022737   
    145. D(C  16,C  17,C  11,N  10)    175.2967         0.022737   
    146. D(Cl 18,C  17,C  16,H  29)      0.0162         0.024989   
    147. D(Cl 18,C  17,C  16,C  15)    179.4312         0.024989   
    148. D(C  11,C  17,C  16,H  29)   -179.2326         0.024989   
    149. D(C  11,C  17,C  16,C  15)      0.1823         0.024989   
    150. D(Cl 18,C  17,C  11,C  12)    175.8707         0.022737   
    -----------------------------------------------------------------

Number of atoms                         .... 30
Number of degrees of freedom            .... 150


         *************************************************************
         *                GEOMETRY OPTIMIZATION CYCLE   1            *
         *************************************************************
---------------------------------
CARTESIAN COORDINATES (ANGSTROEM)
---------------------------------
  O      3.205320    0.772220   -3.481650
  C      3.019920   -0.423630   -2.872600
  O      2.604390   -1.407650   -3.475150
  C      3.320480   -0.407060   -1.391560
  C      4.773730   -0.128810   -1.082440
  C      5.669430   -1.213420   -1.106510
  C      7.032330   -1.021230   -0.890210
  C      7.514530    0.252740   -0.623930
  C      6.634980    1.334310   -0.584780
  C      5.265760    1.173910   -0.860410
  N      4.372990    2.291240   -0.867070
  C      4.785160    3.665540   -0.982660
  C      5.631810    4.129340   -2.012640
  Cl     6.084050    3.138420   -3.359060
  C      6.114230    5.444790   -2.012140
  C      5.706520    6.346220   -1.032240
  C      4.791760    5.941540   -0.063850
  C      4.335910    4.617880   -0.041360
  Cl     3.210470    4.170110    1.195600
  H      3.589430    1.448890   -2.883090
  H      3.044050   -1.389420   -0.980930
  H      2.647280    0.304940   -0.903990
  H      5.309890   -2.220540   -1.316240
  H      7.715650   -1.865180   -0.932480
  H      8.576730    0.411960   -0.457710
  H      7.049620    2.313470   -0.361060
  H      3.794580    2.213950   -0.021130
  H      6.806030    5.773050   -2.785740
  H      6.084520    7.366220   -1.038980
  H      4.444790    6.659400    0.676500

----------------------------
CARTESIAN COORDINATES (A.U.)
----------------------------
  NO LB      ZA    FRAG     MASS         X           Y           Z
   0 O     8.0000    0    15.999    6.057177    1.459284   -6.579365
   1 C     6.0000    0    12.011    5.706822   -0.800545   -5.428427
   2 O     8.0000    0    15.999    4.921584   -2.660073   -6.567082
   3 C     6.0000    0    12.011    6.274798   -0.769232   -2.629667
   4 C     6.0000    0    12.011    9.021042   -0.243416   -2.045515
   5 C     6.0000    0    12.011   10.713670   -2.293031   -2.091001
   6 C     6.0000    0    12.011   13.289178   -1.929845   -1.682253
   7 C     6.0000    0    12.011   14.200404    0.477609   -1.179057
   8 C     6.0000    0    12.011   12.538295    2.521480   -1.105074
   9 C     6.0000    0    12.011    9.950844    2.218368   -1.625939
  10 N     7.0000    0    14.007    8.263753    4.329816   -1.638525
  11 C     6.0000    0    12.011    9.042642    6.926867   -1.856958
  12 C     6.0000    0    12.011   10.642579    7.803322   -3.803338
  13 Cl   17.0000    0    35.453   11.497188    5.930754   -6.347703
  14 C     6.0000    0    12.011   11.554220   10.289162   -3.802394
  15 C     6.0000    0    12.011   10.783760   11.992618   -1.950651
  16 C     6.0000    0    12.011    9.055114   11.227883   -0.120659
  17 C     6.0000    0    12.011    8.193682    8.726529   -0.078159
  18 Cl   17.0000    0    35.453    6.066909    7.880366    2.259357
  19 H     1.0000    0     1.008    6.783040    2.738005   -5.448251
  20 H     1.0000    0     1.008    5.752421   -2.625623   -1.853689
  21 H     1.0000    0     1.008    5.002634    0.576253   -1.708294
  22 H     1.0000    0     1.008   10.034238   -4.196212   -2.487333
  23 H     1.0000    0     1.008   14.580465   -3.524679   -1.762132
  24 H     1.0000    0     1.008   16.207671    0.778492   -0.864947
  25 H     1.0000    0     1.008   13.321851    4.371825   -0.682305
  26 H     1.0000    0     1.008    7.170717    4.183759   -0.039930
  27 H     1.0000    0     1.008   12.861533   10.909483   -5.264286
  28 H     1.0000    0     1.008   11.498076   13.920138   -1.963388
  29 H     1.0000    0     1.008    8.399436   12.584442    1.278400

--------------------------------
INTERNAL COORDINATES (ANGSTROEM)
--------------------------------
 O      0   0   0     0.000000000000     0.00000000     0.00000000
 C      1   0   0     1.354759124346     0.00000000     0.00000000
 O      2   1   0     1.226387803185   122.25886070     0.00000000
 C      2   1   3     1.511320733696   113.80731677   182.21517733
 C      4   2   1     1.511593132890   113.17973868   295.41889602
 C      5   4   2     1.406853477445   117.81917752   275.80959513
 C      6   5   4     1.393276388984   120.91640178   177.12116677
 C      7   6   5     1.387955849190   119.75151965     1.12972456
 C      8   7   6     1.394609117244   119.87585761   359.49189910
 C      9   8   7     1.405867513424   121.34909130   357.55522682
 N     10   9   8     1.430212906318   121.31409752   182.26987130
 C     11  10   9     1.439425457257   124.57742099    18.51254303
 C     12  11  10     1.411660533875   122.95710227    52.24088466
 Cl    13  12  11     1.731845917049   122.40300131     8.52670708
 C     13  12  11     1.401120269249   120.97751612   186.38520438
 C     15  13  12     1.392482495043   120.47830003   356.37438051
 C     16  15  13     1.392239545517   119.58306033   358.68141614
 C     17  16  15     1.400135999894   119.99215386     3.01253646
 Cl    18  17  16     1.731237478828   117.88126431   179.43119454
 H      1   2   3     0.981680627597   112.82262353   183.24233414
 H      4   2   1     1.100028050279   107.82103038   174.46741659
 H      4   2   1     1.094470988606   108.74559446    61.03913464
 H      6   5   4     1.089746015776   120.37979839   358.40012770
 H      7   6   5     1.086721941345   120.12693205   181.29474095
 H      8   7   6     1.086852766846   120.22144722   180.22944026
 H      9   8   7     1.086614592945   117.64318796   179.26184483
 H     11  10   9     1.027689814973   106.78254679   252.54963810
 H     15  13  12     1.088484647388   120.11337558   176.92196454
 H     16  15  13     1.087809462912   120.05950006   180.06718666
 H     17  16  15     1.088039191849   119.40919265   182.43445238

---------------------------
INTERNAL COORDINATES (A.U.)
---------------------------
 O      0   0   0     0.000000000000     0.00000000     0.00000000
 C      1   0   0     2.560123722446     0.00000000     0.00000000
 O      2   1   0     2.317537082000   122.25886070     0.00000000
 C      2   1   3     2.855982287203   113.80731677   182.21517733
 C      4   2   1     2.856497047078   113.17973868   295.41889602
 C      5   4   2     2.658567782926   117.81917752   275.80959513
 C      6   5   4     2.632910804038   120.91640178   177.12116677
 C      7   6   5     2.622856440943   119.75151965     1.12972456
 C      8   7   6     2.635429295461   119.87585761   359.49189910
 C      9   8   7     2.656704580948   121.34909130   357.55522682
 N     10   9   8     2.702710706142   121.31409752   182.26987130
 C     11  10   9     2.720119904410   124.57742099    18.51254303
 C     12  11  10     2.667651803089   122.95710227    52.24088466
 Cl    13  12  11     3.272714489373   122.40300131     8.52670708
 C     13  12  11     2.647733589566   120.97751612   186.38520438
 C     15  13  12     2.631410561910   120.47830003   356.37438051
 C     16  15  13     2.630951453841   119.58306033   358.68141614
 C     17  16  15     2.645873590044   119.99215386     3.01253646
 Cl    18  17  16     3.271564707766   117.88126431   179.43119454
 H      1   2   3     1.855107537135   112.82262353   183.24233414
 H      4   2   1     2.078751754658   107.82103038   174.46741659
 H      4   2   1     2.068250429987   108.74559446    61.03913464
 H      6   5   4     2.059321525349   120.37979839   358.40012770
 H      7   6   5     2.053606852865   120.12693205   181.29474095
 H      8   7   6     2.053854077233   120.22144722   180.22944026
 H      9   8   7     2.053403993787   117.64318796   179.26184483
 H     11  10   9     1.942052300920   106.78254679   252.54963810
 H     15  13  12     2.056937884542   120.11337558   176.92196454
 H     16  15  13     2.055661970791   120.05950006   180.06718666
 H     17  16  15     2.056096095568   119.40919265   182.43445238

---------------------
BASIS SET INFORMATION
---------------------
There are 5 groups of distinct atoms

 Group   1 Type O   : 6s3p contracted to 2s1p pattern {33/3}
 Group   2 Type C   : 6s3p contracted to 2s1p pattern {33/3}
 Group   3 Type N   : 6s3p contracted to 2s1p pattern {33/3}
 Group   4 Type Cl  : 9s6p contracted to 3s2p pattern {333/33}
 Group   5 Type H   : 3s contracted to 1s pattern {3}

Atom   0O    basis set group =>   1
Atom   1C    basis set group =>   2
Atom   2O    basis set group =>   1
Atom   3C    basis set group =>   2
Atom   4C    basis set group =>   2
Atom   5C    basis set group =>   2
Atom   6C    basis set group =>   2
Atom   7C    basis set group =>   2
Atom   8C    basis set group =>   2
Atom   9C    basis set group =>   2
Atom  10N    basis set group =>   3
Atom  11C    basis set group =>   2
Atom  12C    basis set group =>   2
Atom  13Cl   basis set group =>   4
Atom  14C    basis set group =>   2
Atom  15C    basis set group =>   2
Atom  16C    basis set group =>   2
Atom  17C    basis set group =>   2
Atom  18Cl   basis set group =>   4
Atom  19H    basis set group =>   5
Atom  20H    basis set group =>   5
Atom  21H    basis set group =>   5
Atom  22H    basis set group =>   5
Atom  23H    basis set group =>   5
Atom  24H    basis set group =>   5
Atom  25H    basis set group =>   5
Atom  26H    basis set group =>   5
Atom  27H    basis set group =>   5
Atom  28H    basis set group =>   5
Atom  29H    basis set group =>   5
---------------------------------
AUXILIARY/J BASIS SET INFORMATION
---------------------------------
There are 5 groups of distinct atoms

 Group   1 Type O   : 12s5p4d2f1g contracted to 6s4p3d1f1g pattern {711111/2111/211/2/1}
 Group   2 Type C   : 12s5p4d2f1g contracted to 6s4p3d1f1g pattern {711111/2111/211/2/1}
 Group   3 Type N   : 12s5p4d2f1g contracted to 6s4p3d1f1g pattern {711111/2111/211/2/1}
 Group   4 Type Cl  : 14s5p5d2f1g contracted to 8s4p3d1f1g pattern {71111111/2111/311/2/1}
 Group   5 Type H   : 5s2p1d contracted to 3s1p1d pattern {311/2/1}

Atom   0O    basis set group =>   1
Atom   1C    basis set group =>   2
Atom   2O    basis set group =>   1
Atom   3C    basis set group =>   2
Atom   4C    basis set group =>   2
Atom   5C    basis set group =>   2
Atom   6C    basis set group =>   2
Atom   7C    basis set group =>   2
Atom   8C    basis set group =>   2
Atom   9C    basis set group =>   2
Atom  10N    basis set group =>   3
Atom  11C    basis set group =>   2
Atom  12C    basis set group =>   2
Atom  13Cl   basis set group =>   4
Atom  14C    basis set group =>   2
Atom  15C    basis set group =>   2
Atom  16C    basis set group =>   2
Atom  17C    basis set group =>   2
Atom  18Cl   basis set group =>   4
Atom  19H    basis set group =>   5
Atom  20H    basis set group =>   5
Atom  21H    basis set group =>   5
Atom  22H    basis set group =>   5
Atom  23H    basis set group =>   5
Atom  24H    basis set group =>   5
Atom  25H    basis set group =>   5
Atom  26H    basis set group =>   5
Atom  27H    basis set group =>   5
Atom  28H    basis set group =>   5
Atom  29H    basis set group =>   5
------------------------------------------------------------------------------
                             ORCA STARTUP CALCULATIONS
                           -- RI-GTO INTEGRALS CHOSEN --
------------------------------------------------------------------------------
------------------------------------------------------------------------------
                   ___                                                        
                  /   \      - P O W E R E D   B Y -                         
                 /     \                                                     
                 |  |  |   _    _      __       _____    __    __             
                 |  |  |  | |  | |    /  \     |  _  \  |  |  /  |          
                  \  \/   | |  | |   /    \    | | | |  |  | /  /          
                 / \  \   | |__| |  /  /\  \   | |_| |  |  |/  /          
                |  |  |   |  __  | /  /__\  \  |    /   |      \           
                |  |  |   | |  | | |   __   |  |    \   |  |\   \          
                \     /   | |  | | |  |  |  |  | |\  \  |  | \   \       
                 \___/    |_|  |_| |__|  |__|  |_| \__\ |__|  \__/        
                                                                              
                      - O R C A' S   B I G   F R I E N D -                    
                                      &                                       
                       - I N T E G R A L  F E E D E R -                       
                                                                              
 v1 FN, 2020, v2 2021, v3 2022-2024                                           
------------------------------------------------------------------------------


----------------------
SHARK INTEGRAL PACKAGE
----------------------

Number of atoms                             ...     30
Number of basis functions                   ...    114
Number of shells                            ...     72
Maximum angular momentum                    ...      1
Integral batch strategy                     ... SHARK/LIBINT Hybrid
RI-J (if used) integral strategy            ... SPLIT-RIJ (Revised 2003 algorithm where possible)
Printlevel                                  ...      1
Contraction scheme used                     ... SEGMENTED contraction
Prescreening option                         ... SCHWARTZ
   Thresh                                   ... 2.500e-11
   Tcut                                     ... 2.500e-12
   Tpresel                                  ... 2.500e-12 
Coulomb Range Separation                    ... NOT USED
Exchange Range Separation                   ... NOT USED
Multipole approximations                    ... NOT USED
Finite Nucleus Model                        ... NOT USED
CABS basis                                  ... NOT available
Auxiliary Coulomb fitting basis             ... AVAILABLE
   # of basis functions in Aux-J            ...   1056
   # of shells in Aux-J                     ...    344
   Maximum angular momentum in Aux-J        ...      4
Auxiliary J/K fitting basis                 ... NOT available
Auxiliary Correlation fitting basis         ... NOT available
Auxiliary 'external' fitting basis          ... NOT available

Checking pre-screening integrals            ... done (  0.0 sec) Dimension = 72
Check shell pair data                       ... done (  0.0 sec)
Shell pair information
Shell pair cut-off parameter TPreSel        ...   2.5e-12
Total number of shell pairs                 ...      2628
Shell pairs after pre-screening             ...      2143
Total number of primitive shell pairs       ...     23652
Primitive shell pairs kept                  ...     11946
          la=0 lb=0:    990 shell pairs
          la=1 lb=0:    933 shell pairs
          la=1 lb=1:    220 shell pairs

Calculating one electron integrals          ... done (  0.0 sec)
Calculating RI/J V-Matrix + Cholesky decomp.... done (  0.0 sec)
Calculating Nuclear repulsion               ... done (  0.0 sec) ENN=   1645.217004874859 Eh

Diagonalization of the overlap matrix:
Smallest eigenvalue                        ... 1.735e-01
Time for diagonalization                   ...    0.002 sec
Threshold for overlap eigenvalues          ... 1.000e-07
Number of eigenvalues below threshold      ... 0
Time for construction of square roots      ...    0.001 sec
Total time needed                          ...    0.003 sec

-------------------
DFT GRID GENERATION
-------------------

General Integration Accuracy     IntAcc      ... 4.388
Radial Grid Type                 RadialGrid  ... OptM3 with GC (2021)
Angular Grid (max. ang.)         AngularGrid ... 4 (Lebedev-302)
Angular grid pruning method      GridPruning ... 4 (adaptive)
Weight generation scheme         WeightScheme... mBecke (2022)
Basis function cutoff            BFCut       ... 1.0000e-11
Integration weight cutoff        WCut        ... 1.0000e-14
Partially contracted basis set               ... off
Rotationally invariant grid construction     ... off
Angular grids for H and He will be reduced by one unit

Total number of grid points                  ...   151316
Total number of batches                      ...     2383
Average number of points per batch           ...       63
Average number of grid points per atom       ...     5044
Initializing property integral containers    ... done (  0.0 sec)

SHARK setup successfully completed in   0.8 seconds

Maximum memory used throughout the entire STARTUP-calculation: 53.8 MB
-------------------------------------------------------------------------------
                                 ORCA GUESS
                   Start orbitals & Density for SCF / CASSCF
-------------------------------------------------------------------------------

------------
SCF SETTINGS
------------
Hamiltonian:
 Density Functional     Method          .... DFT(GTOs)
 Exchange Functional    Exchange        .... PBE
   PBE kappa parameter   XKappa         ....  0.804000
   PBE mue parameter    XMuePBE         ....  0.219520
 Correlation Functional Correlation     .... PBE
   PBE beta parameter  CBetaPBE         ....  0.066725
 LDA part of GGA corr.  LDAOpt          .... PW91-LDA
 Gradients option       PostSCFGGA      .... off
   NL short-range parameter             ....  6.400000
 RI-approximation to the Coulomb term is turned on
   Number of AuxJ basis functions       .... 1056


General Settings:
 Integral files         IntName         .... Diclofenac\Diclofenac_PBE_STO-3G\Diclofenac_PBE_STO-3G.orcainp
 Hartree-Fock type      HFTyp           .... RHF
 Total Charge           Charge          ....    0
 Multiplicity           Mult            ....    1
 Number of Electrons    NEL             ....  152
 Basis Dimension        Dim             ....  114
 Nuclear Repulsion      ENuc            ....   1645.2170048749 Eh

Convergence Acceleration:
 AO-DIIS                CNVDIIS         .... on
   Start iteration      DIISMaxIt       ....    12
   Startup error        DIISStart       ....  0.200000
   # of expansion vecs  DIISMaxEq       ....     5
   Bias factor          DIISBfac        ....   1.050
   Max. coefficient     DIISMaxC        ....  10.000
 MO-DIIS                CNVKDIIS        .... off
 Trust-Rad. Augm. Hess. CNVTRAH         .... auto
   Auto Start mean grad. ratio tolernc. ....  1.125000
   Auto Start start iteration           ....    50
   Auto Start num. interpolation iter.  ....    10
   Max. Number of Micro iterations      ....    24
   Max. Number of Macro iterations      .... Maxiter - #DIIS iter
   Number of Davidson start vectors     ....     2
   Converg. threshold    (grad. norm)   ....   1.000e-05
   Grad. Scal. Fac. for Micro threshold ....   0.100
   Minimum threshold for Micro iter.    ....   1.000e-02
   NR start threshold (gradient norm)   ....   1.000e-04
   Initial trust radius                 ....   0.400
   Minimum AH scaling param. (alpha)    ....   1.000
   Maximum AH scaling param. (alpha)    .... 1000.000
   Quad. conv. algorithm                .... NR
   White noise on init. David. guess    .... on
   Maximum white noise                  ....   0.010
   Pseudo random numbers                .... off
   Inactive MOs                         .... canonical
   Orbital update algorithm             .... Taylor
   Preconditioner                       .... Diag
   Full preconditioner red. dimension   ....   250
 SOSCF                  CNVSOSCF        .... on
   Start iteration      SOSCFMaxIt      ....   150
   Startup grad/error   SOSCFStart      ....  0.003300
   Hessian update       SOSCFHessUp     .... L-BFGS
 Level Shifting         CNVShift        .... on
   Level shift para.    LevelShift      ....    0.2500
   Turn off err/grad.   ShiftErr        ....    0.0010
 Zerner damping         CNVZerner       .... off
 Static damping         CNVDamp         .... on
   Fraction old density DampFac         ....    0.7000
   Max. Damping (<1)    DampMax         ....    0.9800
   Min. Damping (>=0)   DampMin         ....    0.0000
   Turn off err/grad.   DampErr         ....    0.1000

SCF Procedure:
 Maximum # iterations   MaxIter         ....   125
 SCF integral mode      SCFMode         .... Direct
   Integral package                     .... SHARK and LIBINT hybrid scheme
 Reset frequency        DirectResetFreq ....    20
 Integral Threshold     Thresh          ....  2.500e-11 Eh
 Primitive CutOff       TCut            ....  2.500e-12 Eh

Convergence Tolerance:
 Convergence Check Mode ConvCheckMode   .... Total+1el-Energy
 Convergence forced     ConvForced      .... 0
 Energy Change          TolE            ....  1.000e-08 Eh
 1-El. energy change                    ....  1.000e-05 Eh
 Orbital Gradient       TolG            ....  1.000e-05
 Orbital Rotation angle TolX            ....  1.000e-05
 DIIS Error             TolErr          ....  5.000e-07

------------------------------
INITIAL GUESS: MODEL POTENTIAL
------------------------------
Loading Hartree-Fock densities                     ... done
Calculating cut-offs                               ... done
Initializing the effective Hamiltonian             ... done
Setting up the integral package (SHARK)            ... done
Starting the Coulomb interaction                   ... done (   0.1 sec)
Making the grid                                    ... done (   0.2 sec)
Mapping shells                                     ... done
Starting the XC term evaluation                    ... done (   0.1 sec)
  promolecular density results
     # of electrons  =    151.997733258
     EX              =   -152.479502835
     EC              =     -5.314696449
     EX+EC           =   -157.794199285
Transforming the Hamiltonian                       ... done (   0.0 sec)
Diagonalizing the Hamiltonian                      ... done (   0.0 sec)
Back transforming the eigenvectors                 ... done (   0.0 sec)
Now organizing SCF variables                       ... done
                      ------------------
                      INITIAL GUESS DONE (   0.5 sec)
                      ------------------
             **** ENERGY FILE WAS UPDATED (Diclofenac\Diclofenac_PBE_STO-3G\Diclofenac_PBE_STO-3G.orcainp.en.tmp) ****
Finished Guess after   0.5 sec
Maximum memory used throughout the entire GUESS-calculation: 23.0 MB

-------------------------------------------------------------------------------------------
                                      ORCA LEAN-SCF
                              memory conserving SCF solver
-------------------------------------------------------------------------------------------

--------------------
CPCM SOLVATION MODEL
--------------------
CPCM parameters:
  Epsilon                                         ...      80.1510
  Refrac                                          ...       1.3328
  Rsolv                                           ...       1.3000
  Surface type                                    ... GAUSSIAN VDW
  Discretization scheme                           ... Constant charge density
    Threshold for H atoms                         ...       5.0000 (charges/Ang^2)
    Threshold for non-H atoms                     ...       5.0000 (charges/Ang^2)
  Epsilon function type                           ...         CPCM
Solvent:                                          ... WATER
Radii:
  Scheme                                          ... Element-dependent radii
  Radius for O  used is    3.4469 Bohr (=   1.8240 Ang.)
  Radius for C  used is    3.8550 Bohr (=   2.0400 Ang.)
  Radius for N  used is    3.5149 Bohr (=   1.8600 Ang.)
  Radius for Cl used is    3.9684 Bohr (=   2.1000 Ang.)
  Radius for H  used is    2.4944 Bohr (=   1.3200 Ang.)
Calculating surface                               ...        done! (  0.0s)
Cavity surface points                             ...         2854
Cavity Volume                                     ...    2166.3234
Cavity Surface-area                               ...    1096.9655
Calculating surface distance matrix               ...        done! (  0.0s)
Performing Cholesky decomposition & store         ...        done! (  0.2s)
Overall time for CPCM initialization              ...                 0.2s

----------------------------------------D-I-I-S--------------------------------------------
Iteration    Energy (Eh)           Delta-E    RMSDP     MaxDP     DIISErr   Damp  Time(sec)
-------------------------------------------------------------------------------------------
               ***  Starting incremental Fock matrix formation  ***
    1    -1644.8502140860548479     0.00e+00  5.46e-03  1.50e-01  2.10e-01  0.700   1.1
Warning: op=0 Small HOMO/LUMO gap (   0.094) - skipping pre-diagonalization
         Will do a full diagonalization
    2    -1644.9333141807985612    -8.31e-02  3.75e-03  9.19e-02  7.81e-02  0.700   1.0
                               ***Turning on AO-DIIS***
    3    -1644.9615180248244997    -2.82e-02  1.54e-03  2.56e-02  2.96e-02  0.700   1.0
    4    -1644.9781391368767345    -1.66e-02  2.27e-03  3.34e-02  1.44e-02  0.000   1.0
    5    -1645.0156880344109140    -3.75e-02  7.12e-04  1.20e-02  1.14e-02  0.000   1.0
    6    -1645.0166791716153512    -9.91e-04  2.57e-04  4.00e-03  3.73e-03  0.000   0.9
                              *** Initializing SOSCF ***
---------------------------------------S-O-S-C-F--------------------------------------
Iteration    Energy (Eh)           Delta-E    RMSDP     MaxDP     MaxGrad    Time(sec)
--------------------------------------------------------------------------------------
    7    -1645.0167990356510472    -1.20e-04  1.13e-04  2.46e-03  1.89e-03     0.9
               *** Restarting incremental Fock matrix formation ***
    8    -1645.0168166894602564    -1.77e-05  1.53e-04  2.91e-03  5.06e-04     1.1
    9    -1645.0168114891705500     5.20e-06  8.55e-05  2.33e-03  8.12e-04     0.9
   10    -1645.0168207370759319    -9.25e-06  6.37e-05  1.99e-03  3.11e-04     0.9
   11    -1645.0168192132202876     1.52e-06  4.05e-05  1.29e-03  5.11e-04     0.9
   12    -1645.0168213369327077    -2.12e-06  2.30e-05  4.46e-04  8.36e-05     0.9
   13    -1645.0168213003473738     3.66e-08  1.28e-05  2.49e-04  1.05e-04     0.9
   14    -1645.0168214587854436    -1.58e-07  3.49e-06  5.98e-05  7.04e-06     0.8
   15    -1645.0168214580214681     7.64e-10  2.23e-06  3.84e-05  1.07e-05     0.8
                 **** Energy Check signals convergence ****

               *****************************************************
               *                     SUCCESS                       *
               *           SCF CONVERGED AFTER  15 CYCLES          *
               *****************************************************

             **** ENERGY FILE WAS UPDATED (Diclofenac\Diclofenac_PBE_STO-3G\Diclofenac_PBE_STO-3G.orcainp.en.tmp) ****

----------------
TOTAL SCF ENERGY
----------------

Total Energy       :      -1645.01682145802147 Eh          -44763.18343 eV

Components:
Nuclear Repulsion  :       1645.21700487485873 Eh           44768.63070 eV
Electronic Energy  :      -3290.22241337823516 Eh          -89531.50356 eV
One Electron Energy:      -5534.44621141788502 Eh         -150599.93777 eV
Two Electron Energy:       2244.22379803964986 Eh           61068.43420 eV
CPCM Dielectric    :         -0.01141295464516 Eh              -0.31056 eV

Virial components:
Potential Energy   :      -3261.27473350881291 Eh          -88743.79715 eV
Kinetic Energy     :       1616.25791205079145 Eh           43980.61372 eV
Virial Ratio       :          2.01779351500327

DFT components:
N(Alpha)           :       76.000016386506 electrons
N(Beta)            :       76.000016386506 electrons
N(Total)           :      152.000032773012 electrons
E(X)               :     -153.746275650968 Eh       
E(C)               :       -5.499483138035 Eh       
E(XC)              :     -159.245758789003 Eh       

CPCM Solvation Model Properties:
Surface-charge          :         -0.00857652910529
Corrected charge        :         -0.00000000000000
Outlying charge corr.   :          0.00000411091633 Eh               0.00011 eV
Free-energy (cav+disp)  :  This term is not implemented in the current solvation scheme

---------------
SCF CONVERGENCE
---------------

  Last Energy change         ...   -7.6398e-10  Tolerance :   1.0000e-08
  Last MAX-Density change    ...    3.8381e-05  Tolerance :   1.0000e-07
  Last RMS-Density change    ...    2.2260e-06  Tolerance :   5.0000e-09
  Last DIIS Error            ...    1.8920e-03  Tolerance :   5.0000e-07
  Last Orbital Gradient      ...    1.0655e-05  Tolerance :   1.0000e-05
  Last Orbital Rotation      ...    2.1725e-05  Tolerance :   1.0000e-05


----------------
ORBITAL ENERGIES
----------------

  NO   OCC          E(Eh)            E(eV) 
   0   2.0000     -99.629590     -2711.0590 
   1   2.0000     -99.621534     -2710.8398 
   2   2.0000     -18.553719      -504.8723 
   3   2.0000     -18.481564      -502.9089 
   4   2.0000     -13.861359      -377.1868 
   5   2.0000      -9.810022      -266.9443 
   6   2.0000      -9.799664      -266.6624 
   7   2.0000      -9.791651      -266.4444 
   8   2.0000      -9.791005      -266.4268 
   9   2.0000      -9.768358      -265.8105 
  10   2.0000      -9.739697      -265.0306 
  11   2.0000      -9.738369      -264.9945 
  12   2.0000      -9.733612      -264.8651 
  13   2.0000      -9.732254      -264.8281 
  14   2.0000      -9.731163      -264.7984 
  15   2.0000      -9.716510      -264.3997 
  16   2.0000      -9.715001      -264.3586 
  17   2.0000      -9.714756      -264.3519 
  18   2.0000      -9.712575      -264.2926 
  19   2.0000      -8.992983      -244.7115 
  20   2.0000      -8.985374      -244.5044 
  21   2.0000      -6.845712      -186.2813 
  22   2.0000      -6.838340      -186.0807 
  23   2.0000      -6.827907      -185.7968 
  24   2.0000      -6.827636      -185.7894 
  25   2.0000      -6.820509      -185.5955 
  26   2.0000      -6.819604      -185.5709 
  27   2.0000      -0.941274       -25.6134 
  28   2.0000      -0.862802       -23.4780 
  29   2.0000      -0.844942       -22.9920 
  30   2.0000      -0.782561       -21.2946 
  31   2.0000      -0.765667       -20.8349 
  32   2.0000      -0.734715       -19.9926 
  33   2.0000      -0.710041       -19.3212 
  34   2.0000      -0.673100       -18.3160 
  35   2.0000      -0.650231       -17.6937 
  36   2.0000      -0.620772       -16.8921 
  37   2.0000      -0.618734       -16.8366 
  38   2.0000      -0.596242       -16.2246 
  39   2.0000      -0.530741       -14.4422 
  40   2.0000      -0.519028       -14.1235 
  41   2.0000      -0.504230       -13.7208 
  42   2.0000      -0.492150       -13.3921 
  43   2.0000      -0.481515       -13.1027 
  44   2.0000      -0.446641       -12.1537 
  45   2.0000      -0.437569       -11.9069 
  46   2.0000      -0.412070       -11.2130 
  47   2.0000      -0.397207       -10.8085 
  48   2.0000      -0.394278       -10.7288 
  49   2.0000      -0.382489       -10.4080 
  50   2.0000      -0.373263       -10.1570 
  51   2.0000      -0.364948        -9.9307 
  52   2.0000      -0.355163        -9.6645 
  53   2.0000      -0.350164        -9.5285 
  54   2.0000      -0.340233        -9.2582 
  55   2.0000      -0.326143        -8.8748 
  56   2.0000      -0.317519        -8.6401 
  57   2.0000      -0.307016        -8.3543 
  58   2.0000      -0.292301        -7.9539 
  59   2.0000      -0.286401        -7.7934 
  60   2.0000      -0.282359        -7.6834 
  61   2.0000      -0.275294        -7.4911 
  62   2.0000      -0.267113        -7.2685 
  63   2.0000      -0.256229        -6.9723 
  64   2.0000      -0.251873        -6.8538 
  65   2.0000      -0.232305        -6.3213 
  66   2.0000      -0.230027        -6.2594 
  67   2.0000      -0.224317        -6.1040 
  68   2.0000      -0.216591        -5.8937 
  69   2.0000      -0.199492        -5.4284 
  70   2.0000      -0.175551        -4.7770 
  71   2.0000      -0.168133        -4.5751 
  72   2.0000      -0.164524        -4.4769 
  73   2.0000      -0.138429        -3.7668 
  74   2.0000      -0.118808        -3.2329 
  75   2.0000      -0.093148        -2.5347 
  76   0.0000       0.029311         0.7976 
  77   0.0000       0.031381         0.8539 
  78   0.0000       0.050436         1.3724 
  79   0.0000       0.059474         1.6184 
  80   0.0000       0.082314         2.2399 
  81   0.0000       0.087274         2.3749 
  82   0.0000       0.130732         3.5574 
  83   0.0000       0.176189         4.7943 
  84   0.0000       0.197128         5.3641 
  85   0.0000       0.243990         6.6393 
  86   0.0000       0.270928         7.3723 
*Only the first 10 virtual orbitals were printed.

                    ********************************
                    * MULLIKEN POPULATION ANALYSIS *
                    ********************************

-----------------------
MULLIKEN ATOMIC CHARGES
-----------------------
   0 O :   -0.235456
   1 C :    0.205945
   2 O :   -0.224672
   3 C :   -0.194259
   4 C :   -0.009934
   5 C :   -0.091629
   6 C :   -0.096536
   7 C :   -0.094176
   8 C :   -0.097163
   9 C :    0.058838
  10 N :   -0.297564
  11 C :    0.078563
  12 C :   -0.000060
  13 Cl:   -0.088161
  14 C :   -0.080150
  15 C :   -0.088798
  16 C :   -0.080844
  17 C :   -0.002221
  18 Cl:   -0.085167
  19 H :    0.249698
  20 H :    0.104572
  21 H :    0.105760
  22 H :    0.096832
  23 H :    0.095495
  24 H :    0.096896
  25 H :    0.098076
  26 H :    0.236306
  27 H :    0.114414
  28 H :    0.109818
  29 H :    0.115575
Sum of atomic charges:   -0.0000000

--------------------------------
MULLIKEN REDUCED ORBITAL CHARGES
--------------------------------
  0 O s       :     3.822114  s :     3.822114
      pz      :     1.576810  p :     4.413342
      px      :     1.650622
      py      :     1.185910

  1 C s       :     3.075815  s :     3.075815
      pz      :     0.923227  p :     2.718240
      px      :     0.990355
      py      :     0.804658

  2 O s       :     3.886439  s :     3.886439
      pz      :     1.645707  p :     4.338234
      px      :     1.287948
      py      :     1.404579

  3 C s       :     3.186596  s :     3.186596
      pz      :     0.983392  p :     3.007663
      px      :     0.965675
      py      :     1.058596

  4 C s       :     3.131258  s :     3.131258
      pz      :     1.006801  p :     2.878676
      px      :     0.933022
      py      :     0.938852

  5 C s       :     3.148894  s :     3.148894
      pz      :     1.006219  p :     2.942735
      px      :     0.954257
      py      :     0.982259

  6 C s       :     3.142918  s :     3.142918
      pz      :     1.002895  p :     2.953618
      px      :     0.969711
      py      :     0.981012

  7 C s       :     3.143426  s :     3.143426
      pz      :     1.003211  p :     2.950750
      px      :     0.994401
      py      :     0.953138

  8 C s       :     3.144513  s :     3.144513
      pz      :     1.009906  p :     2.952650
      px      :     0.944835
      py      :     0.997909

  9 C s       :     3.104011  s :     3.104011
      pz      :     1.048401  p :     2.837150
      px      :     0.918758
      py      :     0.869992

 10 N s       :     3.510676  s :     3.510676
      pz      :     1.430551  p :     3.786888
      px      :     1.311509
      py      :     1.044828

 11 C s       :     3.096861  s :     3.096861
      pz      :     0.978390  p :     2.824576
      px      :     0.998011
      py      :     0.848175

 12 C s       :     3.142450  s :     3.142450
      pz      :     0.889575  p :     2.857610
      px      :     1.041557
      py      :     0.926478

 13 Cls       :     5.960037  s :     5.960037
      pz      :     3.488729  p :    11.128124
      px      :     3.897883
      py      :     3.741512

 14 C s       :     3.143570  s :     3.143570
      pz      :     1.003052  p :     2.936579
      px      :     1.001678
      py      :     0.931849

 15 C s       :     3.140868  s :     3.140868
      pz      :     0.963794  p :     2.947930
      px      :     0.984727
      py      :     0.999408

 16 C s       :     3.142594  s :     3.142594
      pz      :     1.003146  p :     2.938250
      px      :     0.986060
      py      :     0.949043

 17 C s       :     3.143329  s :     3.143329
      pz      :     0.902091  p :     2.858892
      px      :     0.976910
      py      :     0.979891

 18 Cls       :     5.960661  s :     5.960661
      pz      :     3.575671  p :    11.124506
      px      :     3.632954
      py      :     3.915882

 19 H s       :     0.750302  s :     0.750302

 20 H s       :     0.895428  s :     0.895428

 21 H s       :     0.894240  s :     0.894240

 22 H s       :     0.903168  s :     0.903168

 23 H s       :     0.904505  s :     0.904505

 24 H s       :     0.903104  s :     0.903104

 25 H s       :     0.901924  s :     0.901924

 26 H s       :     0.763694  s :     0.763694

 27 H s       :     0.885586  s :     0.885586

 28 H s       :     0.890182  s :     0.890182

 29 H s       :     0.884425  s :     0.884425



                     *******************************
                     * LOEWDIN POPULATION ANALYSIS *
                     *******************************

----------------------
LOEWDIN ATOMIC CHARGES
----------------------
   0 O :   -0.129727
   1 C :    0.127563
   2 O :   -0.175384
   3 C :   -0.124959
   4 C :   -0.010595
   5 C :   -0.056204
   6 C :   -0.056729
   7 C :   -0.053824
   8 C :   -0.067781
   9 C :    0.038194
  10 N :   -0.152605
  11 C :    0.039800
  12 C :   -0.018503
  13 Cl:   -0.049631
  14 C :   -0.051120
  15 C :   -0.050538
  16 C :   -0.051603
  17 C :   -0.021839
  18 Cl:   -0.043793
  19 H :    0.183152
  20 H :    0.064149
  21 H :    0.065242
  22 H :    0.056160
  23 H :    0.054836
  24 H :    0.055900
  25 H :    0.057542
  26 H :    0.163969
  27 H :    0.070407
  28 H :    0.066518
  29 H :    0.071404

-------------------------------
LOEWDIN REDUCED ORBITAL CHARGES
-------------------------------
  0 O s       :     3.676954  s :     3.676954
      pz      :     1.590003  p :     4.452774
      px      :     1.652326
      py      :     1.210445

  1 C s       :     3.037670  s :     3.037670
      pz      :     0.962623  p :     2.834767
      px      :     0.997355
      py      :     0.874789

  2 O s       :     3.771953  s :     3.771953
      pz      :     1.664755  p :     4.403431
      px      :     1.296250
      py      :     1.442426

  3 C s       :     3.024717  s :     3.024717
      pz      :     1.026280  p :     3.100242
      px      :     1.000404
      py      :     1.073559

  4 C s       :     3.029213  s :     3.029213
      pz      :     1.010217  p :     2.981382
      px      :     0.977488
      py      :     0.993677

  5 C s       :     3.026528  s :     3.026528
      pz      :     1.008345  p :     3.029677
      px      :     1.006783
      py      :     1.014549

  6 C s       :     3.018063  s :     3.018063
      pz      :     1.005350  p :     3.038666
      px      :     1.014109
      py      :     1.019208

  7 C s       :     3.018341  s :     3.018341
      pz      :     1.005032  p :     3.035483
      px      :     1.022679
      py      :     1.007773

  8 C s       :     3.024653  s :     3.024653
      pz      :     1.013643  p :     3.043128
      px      :     1.000195
      py      :     1.029291

  9 C s       :     3.016077  s :     3.016077
      pz      :     1.048874  p :     2.945729
      px      :     0.968949
      py      :     0.927906

 10 N s       :     3.319753  s :     3.319753
      pz      :     1.432297  p :     3.832852
      px      :     1.327488
      py      :     1.073066

 11 C s       :     3.016505  s :     3.016505
      pz      :     1.016387  p :     2.943695
      px      :     1.020921
      py      :     0.906387

 12 C s       :     3.052231  s :     3.052231
      pz      :     0.934148  p :     2.966271
      px      :     1.059914
      py      :     0.972209

 13 Cls       :     5.912114  s :     5.912114
      pz      :     3.495011  p :    11.137517
      px      :     3.897510
      py      :     3.744996

 14 C s       :     3.023094  s :     3.023094
      pz      :     1.025568  p :     3.028026
      px      :     1.013883
      py      :     0.988575

 15 C s       :     3.016353  s :     3.016353
      pz      :     1.002308  p :     3.034185
      px      :     1.006183
      py      :     1.025693

 16 C s       :     3.021864  s :     3.021864
      pz      :     1.024710  p :     3.029739
      px      :     1.008940
      py      :     0.996089

 17 C s       :     3.054144  s :     3.054144
      pz      :     0.941983  p :     2.967695
      px      :     1.002623
      py      :     1.023088

 18 Cls       :     5.910954  s :     5.910954
      pz      :     3.580327  p :    11.132840
      px      :     3.636155
      py      :     3.916358

 19 H s       :     0.816848  s :     0.816848

 20 H s       :     0.935851  s :     0.935851

 21 H s       :     0.934758  s :     0.934758

 22 H s       :     0.943840  s :     0.943840

 23 H s       :     0.945164  s :     0.945164

 24 H s       :     0.944100  s :     0.944100

 25 H s       :     0.942458  s :     0.942458

 26 H s       :     0.836031  s :     0.836031

 27 H s       :     0.929593  s :     0.929593

 28 H s       :     0.933482  s :     0.933482

 29 H s       :     0.928596  s :     0.928596



                      *****************************
                      * MAYER POPULATION ANALYSIS *
                      *****************************

  NA   - Mulliken gross atomic population
  ZA   - Total nuclear charge
  QA   - Mulliken gross atomic charge
  VA   - Mayer's total valence
  BVA  - Mayer's bonded valence
  FA   - Mayer's free valence

  ATOM       NA         ZA         QA         VA         BVA        FA
  0 O      8.2355     8.0000    -0.2355     2.3343     2.3343     0.0000
  1 C      5.7941     6.0000     0.2059     3.9234     3.9234    -0.0000
  2 O      8.2247     8.0000    -0.2247     2.2910     2.2910     0.0000
  3 C      6.1943     6.0000    -0.1943     3.9564     3.9564    -0.0000
  4 C      6.0099     6.0000    -0.0099     3.9718     3.9718    -0.0000
  5 C      6.0916     6.0000    -0.0916     3.9680     3.9680     0.0000
  6 C      6.0965     6.0000    -0.0965     3.9714     3.9714     0.0000
  7 C      6.0942     6.0000    -0.0942     3.9708     3.9708    -0.0000
  8 C      6.0972     6.0000    -0.0972     3.9679     3.9679     0.0000
  9 C      5.9412     6.0000     0.0588     3.9401     3.9401    -0.0000
 10 N      7.2976     7.0000    -0.2976     3.2558     3.2558     0.0000
 11 C      5.9214     6.0000     0.0786     3.9512     3.9512     0.0000
 12 C      6.0001     6.0000    -0.0001     3.9165     3.9165     0.0000
 13 Cl    17.0882    17.0000    -0.0882     1.1411     1.1411     0.0000
 14 C      6.0801     6.0000    -0.0801     3.9651     3.9651    -0.0000
 15 C      6.0888     6.0000    -0.0888     3.9683     3.9683    -0.0000
 16 C      6.0808     6.0000    -0.0808     3.9651     3.9651    -0.0000
 17 C      6.0022     6.0000    -0.0022     3.9120     3.9120     0.0000
 18 Cl    17.0852    17.0000    -0.0852     1.1603     1.1603     0.0000
 19 H      0.7503     1.0000     0.2497     0.9377     0.9377    -0.0000
 20 H      0.8954     1.0000     0.1046     0.9891     0.9891    -0.0000
 21 H      0.8942     1.0000     0.1058     0.9888     0.9888    -0.0000
 22 H      0.9032     1.0000     0.0968     0.9906     0.9906     0.0000
 23 H      0.9045     1.0000     0.0955     0.9909     0.9909     0.0000
 24 H      0.9031     1.0000     0.0969     0.9906     0.9906     0.0000
 25 H      0.9019     1.0000     0.0981     0.9904     0.9904     0.0000
 26 H      0.7637     1.0000     0.2363     0.9442     0.9442    -0.0000
 27 H      0.8856     1.0000     0.1144     0.9869     0.9869    -0.0000
 28 H      0.8902     1.0000     0.1098     0.9879     0.9879     0.0000
 29 H      0.8844     1.0000     0.1156     0.9866     0.9866    -0.0000

  Mayer bond orders larger than 0.100000
B(  0-O ,  1-C ) :   1.1089 B(  0-O ,  2-O ) :   0.2719 B(  0-O , 19-H ) :   0.8672 
B(  1-C ,  2-O ) :   1.8637 B(  1-C ,  3-C ) :   0.9042 B(  3-C ,  4-C ) :   0.9968 
B(  3-C , 20-H ) :   0.9562 B(  3-C , 21-H ) :   0.9481 B(  4-C ,  5-C ) :   1.4018 
B(  4-C ,  7-C ) :   0.1052 B(  4-C ,  9-C ) :   1.3475 B(  5-C ,  6-C ) :   1.4357 
B(  5-C ,  8-C ) :   0.1098 B(  5-C , 22-H ) :   0.9566 B(  6-C ,  7-C ) :   1.4231 
B(  6-C ,  9-C ) :   0.1008 B(  6-C , 23-H ) :   0.9584 B(  7-C ,  8-C ) :   1.4379 
B(  7-C , 24-H ) :   0.9581 B(  8-C ,  9-C ) :   1.3777 B(  8-C , 25-H ) :   0.9549 
B(  9-C , 10-N ) :   0.9989 B( 10-N , 11-C ) :   1.0798 B( 10-N , 26-H ) :   0.8747 
B( 11-C , 12-C ) :   1.3133 B( 11-C , 17-C ) :   1.3146 B( 12-C , 13-Cl) :   0.9876 
B( 12-C , 14-C ) :   1.4063 B( 14-C , 15-C ) :   1.4224 B( 14-C , 27-H ) :   0.9534 
B( 15-C , 16-C ) :   1.4198 B( 15-C , 28-H ) :   0.9547 B( 16-C , 17-C ) :   1.4084 
B( 16-C , 29-H ) :   0.9531 B( 17-C , 18-Cl) :   0.9819 

-------
TIMINGS
-------

Total SCF time: 0 days 0 hours 0 min 14 sec 

Total time                  ....      14.141 sec
Sum of individual times     ....      14.091 sec  ( 99.6%)

SCF preparation             ....       0.243 sec  (  1.7%)
Fock matrix formation       ....      13.728 sec  ( 97.1%)
  Startup                   ....       0.015 sec  (  0.1% of F)
  Split-RI-J                ....       3.554 sec  ( 25.9% of F)
  XC integration            ....       3.913 sec  ( 28.5% of F)
    Basis function eval.    ....       1.757 sec  ( 44.9% of XC)
    Density eval.           ....       0.651 sec  ( 16.6% of XC)
    XC-Functional eval.     ....       0.405 sec  ( 10.4% of XC)
    XC-Potential eval.      ....       0.615 sec  ( 15.7% of XC)
  CPCM terms                ....       6.172 sec  ( 45.0% of F)
Diagonalization             ....       0.000 sec  (  0.0%)
Density matrix formation    ....       0.030 sec  (  0.2%)
Total Energy calculation    ....       0.013 sec  (  0.1%)
Population analysis         ....       0.008 sec  (  0.1%)
Orbital Transformation      ....       0.007 sec  (  0.0%)
Orbital Orthonormalization  ....       0.000 sec  (  0.0%)
DIIS solution               ....       0.038 sec  (  0.3%)
SOSCF solution              ....       0.024 sec  (  0.2%)
Finished LeanSCF after  14.2 sec

Maximum memory used throughout the entire LEANSCF-calculation: 70.7 MB

-------------------------   --------------------
FINAL SINGLE POINT ENERGY     -1645.016821458021
-------------------------   --------------------

------------------------------------------------------------------------------
                         ORCA SCF GRADIENT CALCULATION
------------------------------------------------------------------------------

Nuc. rep. gradient        (SHARK) ... done (  0.0 sec)
HCore & Overlap gradient  (SHARK) ... done (  0.1 sec)
Split-RIJ-J gradient      (SHARK) ... done (  0.9 sec)
XC gradient                       ... done (  3.4 sec)
CPCM gradient                     ... done (  0.7 sec)

------------------
CARTESIAN GRADIENT
------------------

   1   O   :    0.015985306   -0.015424594    0.082755511
   2   C   :   -0.007235390   -0.009381570   -0.026065623
   3   O   :    0.022222541    0.049413641    0.039204569
   4   C   :    0.003924469    0.008334936   -0.043421625
   5   C   :    0.007884347    0.009988764    0.004192534
   6   C   :   -0.001319500    0.000951718   -0.001247426
   7   C   :   -0.002532085    0.011407840    0.001728416
   8   C   :   -0.004926662   -0.006967842   -0.001468897
   9   C   :   -0.010668852   -0.004804868    0.002042855
  10   C   :   -0.030214733    0.005639079    0.000165579
  11   N   :    0.021671844   -0.017158491    0.020018479
  12   C   :   -0.004969863    0.029709565   -0.002841342
  13   C   :   -0.000769282   -0.026210661   -0.014529094
  14   Cl  :   -0.010621594    0.032726894    0.032280249
  15   C   :   -0.003386886   -0.003379569    0.004488742
  16   C   :   -0.002664283   -0.004810660    0.000516230
  17   C   :    0.003706257   -0.004622084   -0.003243233
  18   C   :   -0.019032242   -0.022099597    0.015012281
  19   Cl  :    0.030265034    0.018206670   -0.033390052
  20   H   :   -0.019864150   -0.028953914   -0.046213952
  21   H   :   -0.000592959    0.007384133   -0.000943902
  22   H   :    0.004416092   -0.012310503   -0.005386918
  23   H   :    0.007693353    0.009129747    0.001569343
  24   H   :   -0.008123495    0.011059460    0.000416982
  25   H   :   -0.012941187   -0.002666040   -0.003649850
  26   H   :   -0.000702977   -0.014556864   -0.001885524
  27   H   :    0.027873796   -0.001831746   -0.020291367
  28   H   :   -0.006837781   -0.001331252    0.010560974
  29   H   :   -0.004055555   -0.011583142   -0.000185710
  30   H   :    0.005816434   -0.005859050   -0.010188229

Difference to translation invariance:
           :    0.0000000001    0.0000000000   -0.0000000000

Difference to rotation invariance:
           :   -0.0005496475    0.0000583598   -0.0003130510

Norm of the Cartesian gradient     ...    0.1757483866
RMS gradient                       ...    0.0185255066
MAX gradient                       ...    0.0827555105

-------
TIMINGS
-------

Total SCF gradient time     ....        5.443 sec

One electron gradient       ....       0.121 sec  (  2.2%)
RI-J Coulomb gradient       ....       0.879 sec  ( 16.1%)
XC gradient                 ....       3.374 sec  ( 62.0%)
CPCM gradient               ....       0.688 sec  ( 12.6%)
   A-Matrix (El+Nuc)        ....       0.228 sec  (  4.2%)
   Potential                ....       0.460 sec  (  8.5%)

Maximum memory used throughout the entire SCFGRAD-calculation: 24.9 MB
------------------------------------------------------------------------------
                         ORCA GEOMETRY RELAXATION STEP
------------------------------------------------------------------------------

Reading the OPT-File                    .... done
Getting information on internals        .... done
Copying old internal coords+grads       .... done
Making the new internal coordinates     .... (2022 redundants) done
Validating the new internal coordinates .... (2022 redundants) done
Calculating the B-matrix                .... done
Calculating the G,G- and P matrices     .... done
Transforming gradient to internals      .... done
Projecting the internal gradient        .... done
Number of atoms                         ....  30
Number of internal coordinates          .... 150
Current Energy                          .... -1645.016821458 Eh
Current gradient norm                   ....     0.175748387 Eh/bohr
Maximum allowed component of the step   ....  0.300
Current trust radius                    ....  0.300
Evaluating the initial hessian          ....  (Almloef) done
Projecting the Hessian                  .... done
Forming the augmented Hessian           .... done
Diagonalizing the augmented Hessian     .... done
Last element of RFO vector              ....  0.939172322
Lowest eigenvalues of augmented Hessian:
 -0.055509088  0.005871166  0.011906575  0.017146889  0.018257705
Length of the computed step             ....  0.365690380
Warning: the length of the step is outside the trust region - taking restricted step instead
The input lambda is                     ....     0.004487
   iter:   5  x=   -0.003361  g=  373.854068 f(x)=     1.260582
   iter:  10  x=   -0.105522  g=    0.801332 f(x)=     0.025176
   iter:  15  x=   -0.118011  g=    0.423894 f(x)=    -0.000000
The output lambda is                    ....    -0.118011 (15 iterations)
The final length of the internal step   ....  0.300000000
Converting the step to Cartesian space:
 Initial RMS(Int)=    0.0244948974
Transforming coordinates:
 Iter   0:  RMS(Cart)=    0.0587726655 RMS(Int)=    0.5134268979
done
Storing new coordinates                 .... done

                                .--------------------.
          ----------------------|Geometry convergence|-------------------------
          Item                value                   Tolerance       Converged
          ---------------------------------------------------------------------
          RMS gradient        0.0141304287            0.0001000000      NO
          MAX gradient        0.0664393698            0.0003000000      NO
          RMS step            0.0244948974            0.0020000000      NO
          MAX step            0.1064427335            0.0040000000      NO
          ........................................................
          Max(Bonds)      0.0563      Max(Angles)    2.95
          Max(Dihed)        1.76      Max(Improp)    0.00
          ---------------------------------------------------------------------

The optimization has not yet converged - more geometry cycles are needed


    ---------------------------------------------------------------------------
                         Redundant Internal Coordinates
                            (Angstroem and degrees)

        Definition                    Value    dE/dq     Step     New-Value
    ----------------------------------------------------------------------------
     1. B(C   1,O   0)                1.3548 -0.056238  0.0394    1.3942   
     2. B(O   2,C   1)                1.2264 -0.066439  0.0309    1.2573   
     3. B(C   3,C   1)                1.5113 -0.055069  0.0563    1.5676   
     4. B(C   4,C   3)                1.5116 -0.020555  0.0211    1.5327   
     5. B(C   5,C   4)                1.4069 -0.014212  0.0105    1.4174   
     6. B(C   6,C   5)                1.3933 -0.021265  0.0154    1.4086   
     7. B(C   7,C   6)                1.3880 -0.028325  0.0202    1.4082   
     8. B(C   8,C   7)                1.3946 -0.017541  0.0128    1.4074   
     9. B(C   9,C   8)                1.4059 -0.018910  0.0141    1.4200   
    10. B(C   9,C   4)                1.4101 -0.021713  0.0163    1.4264   
    11. B(N  10,C   9)                1.4302 -0.037643  0.0332    1.4634   
    12. B(C  11,N  10)                1.4394 -0.002915  0.0027    1.4421   
    13. B(C  12,C  11)                1.4117 -0.022627  0.0172    1.4289   
    14. B(Cl 13,C  12)                1.7318 -0.046598  0.0477    1.7795   
    15. B(C  14,C  12)                1.4011 -0.016911  0.0125    1.4136   
    16. B(C  15,C  14)                1.3925 -0.022989  0.0165    1.4090   
    17. B(C  16,C  15)                1.3922 -0.023478  0.0169    1.4091   
[...]
  4 C s       :     3.150614  s :     3.150614
      pz      :     0.993965  p :     2.858486
      px      :     0.936832
      py      :     0.927689

  5 C s       :     3.161929  s :     3.161929
      pz      :     1.004169  p :     2.926888
      px      :     0.946101
      py      :     0.976618

  6 C s       :     3.160065  s :     3.160065
      pz      :     0.997687  p :     2.930388
      px      :     0.962396
      py      :     0.970305

  7 C s       :     3.158596  s :     3.158596
      pz      :     1.004154  p :     2.930177
      px      :     0.985962
      py      :     0.940062

  8 C s       :     3.156276  s :     3.156276
      pz      :     1.009477  p :     2.938802
      px      :     0.936262
      py      :     0.993063

  9 C s       :     3.136896  s :     3.136896
      pz      :     1.051324  p :     2.806732
      px      :     0.898059
      py      :     0.857350

 10 N s       :     3.576418  s :     3.576418
      pz      :     1.426739  p :     3.697663
      px      :     1.217733
      py      :     1.053190

 11 C s       :     3.117948  s :     3.117948
      pz      :     0.965638  p :     2.809372
      px      :     0.997188
      py      :     0.846547

 12 C s       :     3.173105  s :     3.173105
      pz      :     0.871343  p :     2.802839
      px      :     1.024968
      py      :     0.906528

 13 Cls       :     5.967850  s :     5.967850
      pz      :     3.540875  p :    11.135527
      px      :     3.892396
      py      :     3.702256

 14 C s       :     3.158416  s :     3.158416
      pz      :     0.997850  p :     2.915361
      px      :     0.998046
      py      :     0.919464

 15 C s       :     3.160009  s :     3.160009
      pz      :     0.944215  p :     2.912189
      px      :     0.972013
      py      :     0.995961

 16 C s       :     3.157542  s :     3.157542
      pz      :     0.995659  p :     2.916846
      px      :     0.983471
      py      :     0.937717

 17 C s       :     3.174678  s :     3.174678
      pz      :     0.870998  p :     2.802760
      px      :     0.974913
      py      :     0.956849

 18 Cls       :     5.968980  s :     5.968980
      pz      :     3.560576  p :    11.131952
      px      :     3.699294
      py      :     3.872081

 19 H s       :     0.785901  s :     0.785901

 20 H s       :     0.904861  s :     0.904861

 21 H s       :     0.903945  s :     0.903945

 22 H s       :     0.904426  s :     0.904426

 23 H s       :     0.903986  s :     0.903986

 24 H s       :     0.902664  s :     0.902664

 25 H s       :     0.898683  s :     0.898683

 26 H s       :     0.761072  s :     0.761072

 27 H s       :     0.877199  s :     0.877199

 28 H s       :     0.882397  s :     0.882397

 29 H s       :     0.875681  s :     0.875681



                     *******************************
                     * LOEWDIN POPULATION ANALYSIS *
                     *******************************

----------------------
LOEWDIN ATOMIC CHARGES
----------------------
   0 O :   -0.170274
   1 C :    0.086868
   2 O :   -0.193116
   3 C :   -0.115671
   4 C :   -0.007702
   5 C :   -0.053901
   6 C :   -0.051499
   7 C :   -0.050351
   8 C :   -0.064526
   9 C :    0.039306
  10 N :   -0.126744
  11 C :    0.036454
  12 C :    0.010462
  13 Cl:   -0.071360
  14 C :   -0.043750
  15 C :   -0.031932
  16 C :   -0.044056
  17 C :    0.008398
  18 Cl:   -0.065244
  19 H :    0.160540
  20 H :    0.056448
  21 H :    0.058294
  22 H :    0.055928
  23 H :    0.056205
  24 H :    0.057239
  25 H :    0.061501
  26 H :    0.171352
  27 H :    0.078172
  28 H :    0.073438
  29 H :    0.079522

-------------------------------
LOEWDIN REDUCED ORBITAL CHARGES
-------------------------------
  0 O s       :     3.746435  s :     3.746435
      pz      :     1.555623  p :     4.423839
      px      :     1.625325
      py      :     1.242890

  1 C s       :     3.106394  s :     3.106394
      pz      :     0.943727  p :     2.806738
      px      :     0.992278
      py      :     0.870733

  2 O s       :     3.795744  s :     3.795744
      pz      :     1.495208  p :     4.397372
      px      :     1.322219
      py      :     1.579945

  3 C s       :     3.058689  s :     3.058689
      pz      :     1.023190  p :     3.056982
      px      :     0.980321
      py      :     1.053472

  4 C s       :     3.048480  s :     3.048480
      pz      :     0.997462  p :     2.959222
      px      :     0.978453
      py      :     0.983307

  5 C s       :     3.040786  s :     3.040786
      pz      :     1.007063  p :     3.013116
      px      :     0.997005
      py      :     1.009048

  6 C s       :     3.036741  s :     3.036741
      pz      :     1.000537  p :     3.014758
      px      :     1.004948
      py      :     1.009273

  7 C s       :     3.035394  s :     3.035394
      pz      :     1.006011  p :     3.014957
      px      :     1.014050
      py      :     0.994897

  8 C s       :     3.036577  s :     3.036577
      pz      :     1.013326  p :     3.027949
      px      :     0.991869
      py      :     1.022754

  9 C s       :     3.049276  s :     3.049276
      pz      :     1.052937  p :     2.911418
      px      :     0.947436
      py      :     0.911045

 10 N s       :     3.390756  s :     3.390756
      pz      :     1.428173  p :     3.735988
      px      :     1.230192
      py      :     1.077623

 11 C s       :     3.037526  s :     3.037526
      pz      :     1.005920  p :     2.926019
      px      :     1.018600
      py      :     0.901500

 12 C s       :     3.082780  s :     3.082780
      pz      :     0.912904  p :     2.906758
      px      :     1.041218
      py      :     0.952635

 13 Cls       :     5.929818  s :     5.929818
      pz      :     3.544647  p :    11.141541
      px      :     3.891991
      py      :     3.704904

 14 C s       :     3.038158  s :     3.038158
      pz      :     1.020076  p :     3.005592
      px      :     1.007856
      py      :     0.977660

 15 C s       :     3.035998  s :     3.035998
      pz      :     0.985078  p :     2.995934
      px      :     0.989370
      py      :     1.021486

 16 C s       :     3.036923  s :     3.036923
      pz      :     1.018546  p :     3.007133
      px      :     1.000913
      py      :     0.987674

 17 C s       :     3.085394  s :     3.085394
      pz      :     0.910530  p :     2.906208
      px      :     0.993732
      py      :     1.001946

 18 Cls       :     5.929317  s :     5.929317
      pz      :     3.563103  p :    11.135927
      px      :     3.700374
      py      :     3.872450

 19 H s       :     0.839460  s :     0.839460

 20 H s       :     0.943552  s :     0.943552

 21 H s       :     0.941706  s :     0.941706

 22 H s       :     0.944072  s :     0.944072

 23 H s       :     0.943795  s :     0.943795

 24 H s       :     0.942761  s :     0.942761

 25 H s       :     0.938499  s :     0.938499

 26 H s       :     0.828648  s :     0.828648

 27 H s       :     0.921828  s :     0.921828

 28 H s       :     0.926562  s :     0.926562

 29 H s       :     0.920478  s :     0.920478



                      *****************************
                      * MAYER POPULATION ANALYSIS *
                      *****************************

  NA   - Mulliken gross atomic population
  ZA   - Total nuclear charge
  QA   - Mulliken gross atomic charge
  VA   - Mayer's total valence
  BVA  - Mayer's bonded valence
  FA   - Mayer's free valence

  ATOM       NA         ZA         QA         VA         BVA        FA
  0 O      8.2383     8.0000    -0.2383     2.3669     2.3669    -0.0000
  1 C      5.8471     6.0000     0.1529     3.9076     3.9076    -0.0000
  2 O      8.2362     8.0000    -0.2362     2.2799     2.2799    -0.0000
  3 C      6.1822     6.0000    -0.1822     3.9451     3.9451     0.0000
  4 C      6.0091     6.0000    -0.0091     3.9655     3.9655     0.0000
  5 C      6.0888     6.0000    -0.0888     3.9631     3.9631     0.0000
  6 C      6.0905     6.0000    -0.0905     3.9650     3.9650    -0.0000
  7 C      6.0888     6.0000    -0.0888     3.9644     3.9644    -0.0000
  8 C      6.0951     6.0000    -0.0951     3.9629     3.9629     0.0000
  9 C      5.9436     6.0000     0.0564     3.9196     3.9196     0.0000
 10 N      7.2741     7.0000    -0.2741     3.3089     3.3089    -0.0000
 11 C      5.9273     6.0000     0.0727     3.9432     3.9432    -0.0000
 12 C      5.9759     6.0000     0.0241     3.9066     3.9066    -0.0000
 13 Cl    17.1034    17.0000    -0.1034     1.1168     1.1168     0.0000
 14 C      6.0738     6.0000    -0.0738     3.9579     3.9579    -0.0000
 15 C      6.0722     6.0000    -0.0722     3.9603     3.9603     0.0000
 16 C      6.0744     6.0000    -0.0744     3.9579     3.9579     0.0000
 17 C      5.9774     6.0000     0.0226     3.8992     3.8992     0.0000
 18 Cl    17.1009    17.0000    -0.1009     1.1475     1.1475    -0.0000
 19 H      0.7859     1.0000     0.2141     0.9542     0.9542     0.0000
 20 H      0.9049     1.0000     0.0951     0.9909     0.9909     0.0000
 21 H      0.9039     1.0000     0.0961     0.9908     0.9908     0.0000
 22 H      0.9044     1.0000     0.0956     0.9909     0.9909     0.0000
 23 H      0.9040     1.0000     0.0960     0.9908     0.9908    -0.0000
 24 H      0.9027     1.0000     0.0973     0.9905     0.9905    -0.0000
 25 H      0.8987     1.0000     0.1013     0.9897     0.9897    -0.0000
 26 H      0.7611     1.0000     0.2389     0.9429     0.9429     0.0000
 27 H      0.8772     1.0000     0.1228     0.9849     0.9849    -0.0000
 28 H      0.8824     1.0000     0.1176     0.9862     0.9862    -0.0000
 29 H      0.8757     1.0000     0.1243     0.9845     0.9845    -0.0000

  Mayer bond orders larger than 0.100000
B(  0-O ,  1-C ) :   1.1816 B(  0-O ,  2-O ) :   0.2833 B(  0-O , 19-H ) :   0.7080 
B(  1-C ,  2-O ) :   1.8324 B(  1-C ,  3-C ) :   0.8495 B(  3-C ,  4-C ) :   1.0059 
B(  3-C , 20-H ) :   0.9621 B(  3-C , 21-H ) :   0.9484 B(  4-C ,  5-C ) :   1.3992 
B(  4-C ,  7-C ) :   0.1069 B(  4-C ,  9-C ) :   1.3450 B(  5-C ,  6-C ) :   1.4296 
B(  5-C ,  8-C ) :   0.1064 B(  5-C , 22-H ) :   0.9549 B(  6-C ,  7-C ) :   1.4246 
B(  6-C ,  9-C ) :   0.1050 B(  6-C , 23-H ) :   0.9571 B(  7-C ,  8-C ) :   1.4194 
B(  7-C , 24-H ) :   0.9567 B(  8-C ,  9-C ) :   1.4109 B(  8-C , 25-H ) :   0.9507 
B(  9-C , 10-N ) :   0.9321 B( 10-N , 11-C ) :   1.0187 B( 10-N , 19-H ) :   0.2109 
B( 10-N , 26-H ) :   0.8616 B( 11-C , 12-C ) :   1.3338 B( 11-C , 17-C ) :   1.3348 
B( 12-C , 13-Cl) :   0.9682 B( 12-C , 14-C ) :   1.4062 B( 12-C , 16-C ) :   0.1004 
B( 14-C , 15-C ) :   1.4191 B( 14-C , 27-H ) :   0.9499 B( 15-C , 16-C ) :   1.4146 
B( 15-C , 28-H ) :   0.9510 B( 16-C , 17-C ) :   1.4103 B( 16-C , 29-H ) :   0.9494 
B( 17-C , 18-Cl) :   0.9544 

-------
TIMINGS
-------

Total SCF time: 0 days 0 hours 0 min 5 sec 

Total time                  ....       5.684 sec
Sum of individual times     ....       5.633 sec  ( 99.1%)

SCF preparation             ....       0.257 sec  (  4.5%)
Fock matrix formation       ....       5.310 sec  ( 93.4%)
  Startup                   ....       0.006 sec  (  0.1% of F)
  Split-RI-J                ....       1.350 sec  ( 25.4% of F)
  XC integration            ....       1.544 sec  ( 29.1% of F)
    Basis function eval.    ....       0.766 sec  ( 49.6% of XC)
    Density eval.           ....       0.259 sec  ( 16.8% of XC)
    XC-Functional eval.     ....       0.160 sec  ( 10.4% of XC)
    XC-Potential eval.      ....       0.203 sec  ( 13.1% of XC)
  CPCM terms                ....       2.380 sec  ( 44.8% of F)
Diagonalization             ....       0.000 sec  (  0.0%)
Density matrix formation    ....       0.009 sec  (  0.2%)
Total Energy calculation    ....       0.004 sec  (  0.1%)
Population analysis         ....       0.030 sec  (  0.5%)
Orbital Transformation      ....       0.003 sec  (  0.1%)
Orbital Orthonormalization  ....       0.000 sec  (  0.0%)
DIIS solution               ....       0.003 sec  (  0.1%)
SOSCF solution              ....       0.017 sec  (  0.3%)
Finished LeanSCF after   5.8 sec

Maximum memory used throughout the entire LEANSCF-calculation: 72.6 MB

-------------------------   --------------------
FINAL SINGLE POINT ENERGY     -1645.069942463382
-------------------------   --------------------

                                *** OPTIMIZATION RUN DONE ***


------------------------------------------------------------------------------
                              ORCA PROPERTY CALCULATIONS
------------------------------------------------------------------------------

GBWName                                 ... Diclofenac\Diclofenac_PBE_STO-3G\Diclofenac_PBE_STO-3G.orcainp.gbw
Number of atoms                         ...     30
Number of basis functions               ...    114
Max core memory                         ...   1024 MB

Electric properties:
Dipole moment                           ... YES
Quadrupole moment                       ...  NO
Static polarizability (Dipole/Dipole)   ...  NO
Static polarizability (Dipole/Quad.)    ...  NO
Static polarizability (Quad./Quad.)     ...  NO
Static polarizability (Velocity)        ...  NO

Atomic electric properties:
Dipole moment                           ...  NO
Quadrupole moment                       ...  NO
Static polarizability                   ...  NO

Choice of electric origin               ... Center of mass
Position of electric origin             ...     9.214768     4.197344    -2.586739

General magnetic properties:
Magnetizability                         ...  NO

EPR properties:
g-Tensor (aka g-matrix)                 ...  NO
Zero-Field splitting spin-orbit         ...  NO
Zero-field splitting spin-spin          ...  NO
Hyperfine couplings                     ...  NO (   0 nuclei)
Quadrupole couplings                    ...  NO (   0 nuclei)
Contact density                         ...  NO (   0 nuclei)

NMR properties:
Chemical shifts                         ...  NO (   0 nuclei)
Spin-rotation constants                 ...  NO (   0 nuclei)
Spin-spin couplings                     ...  NO (   0 nuclei,    0 pairs)

Choice of magnetic origin               ... GIAO
Position of magnetic origin             ...     0.000000     0.000000     0.000000

Properties with geometric perturbations:
SCF Hessian                             ...  NO
IR spectrum                             ...  NO
VCD spectrum                            ...  NO
X-ray spectroscopy properties:
SCF XES/XAS/RIXS spectra                ...  NO


-------------
DIPOLE MOMENT
-------------

Method             : SCF
Type of density    : Electron Density
Multiplicity       :   1
Irrep              :   0
Energy             : -1645.0699424633821764 Eh
Relativity type    : 
Basis              : AO
                                X                 Y                 Z
Electronic contribution:     -4.035312823       8.810103733      -1.498669258
Nuclear contribution   :      5.237828397      -6.880437263       3.522069716
                        -----------------------------------------
Total Dipole Moment    :      1.202515574       1.929666471       2.023400458
                        -----------------------------------------
Magnitude (a.u.)       :      3.043650079
Magnitude (Debye)      :      7.736343684



--------------------
Rotational spectrum 
--------------------
 
Rotational constants in cm-1:             0.013498             0.007476             0.007318 
Rotational constants in MHz :           404.672282           224.114547           219.389909 

Dipole components along the rotational axes: 
x,y,z [a.u.] :     2.433287    -0.326568     1.798965 
x,y,z [Debye]:     6.184923    -0.830070     4.572606 

 

Dipole moment calculation done in   0.0 sec 

Maximum memory used throughout the entire PROP-calculation: 10.1 MB

--------------------------------
SUGGESTED CITATIONS FOR THIS RUN
--------------------------------

Below you find a list of papers that are relevant to this ORCA run
We neither can nor want to force you to cite these papers, but we appreciate if you do
You receive ORCA, which is the product of decades of hard work by many enthusiastic individuals, for free
The only thing we kindly ask in return is that you cite our papers,
We deeply appreciate it, if you show your appreciation for ORCA by not just citing the generic ORCA reference.

Please note that relegating all ORCA citations to the supporting information does *not* help us.
SI sections are not indexed - citations you put there will not count into any citation statistics
But we need these citations in order to attract the funding resources that allow us to do what we are doing

Therefore, if you are a happy ORCA user, please consider citing a few of the papers listed below in the main body of your paper

In addition to the list printed below, the program has created the file Diclofenac\Diclofenac_PBE_STO-3G\Diclofenac_PBE_STO-3G.orcainp.bibtex that contains the list in bibtex format
You can import this file easily into all common literature databanks and citation aid programs


List of essential papers. We consider these as the minimum necessary citations

  1. Neese,F.
     Software update: the ORCA program system, version 5.0
     WIRES Comput. Molec. Sci., 2022 12(1)e1606
     doi.org/10.1002/wcms.1606

List of papers to cite with high priority. The work reported in these papers was absolutely
necessary for this run to complete.
Our perspective: the developers of density functionals and basis sets usually get cited in chemistry papers
Good! But without the algorithms to do something with them, the functionals or basis sets would not do anything.
Hence, in our opinion, the algorithm design and method developments papers are equally worthy of getting cited

  1. Neese,F.
     An improvement of the resolution of the identity approximation for the formation of the Coulomb matrix
     J. Comp. Chem., 2003 24(14)1740-1747
     doi.org/10.1002/jcc.10318
  2. Garcia-Rates,M.; Neese,F.
     Effect of the Solute Cavity on the Solvation Energy and its Derivatives within the Framework of the Gaussian Charge Scheme
     J. Comput. Chem., 2020 41 922-939
     doi.org/10.1002/jcc.26139
  3. Neese,F.
     The SHARK Integral Generation and Digestion System
     J. Comp. Chem., 2022  1-16
     doi.org/10.1002/jcc.26942

List of suggested additional citations. These are papers that are important in the 'surrounding' of 
of this run, or papers that preceded the highly important papers. If you like your results we are grateful for a citation.

  1. Neese,F.
     The ORCA program system
     WIRES Comput. Molec. Sci., 2012 2(1)73-78
     doi.org/10.1002/wcms.81
  2. Neese,F.
     Software update: the ORCA program system, version 4.0
     WIRES Comput. Molec. Sci., 2018 8(1)1-6
     doi.org/10.1002/wcms.1327
  3. Neese,F.; Wennmohs,F.; Becker,U.; Riplinger,C.
     The ORCA quantum chemistry program package
     J. Chem. Phys., 2020 152 Art. No. L224108
     doi.org/10.1063/5.0004608

List of optional additional citations

  1. Neese,F.
     Approximate second-order SCF convergence for spin unrestricted wavefunctions
     Chem. Phys. Lett., 2000 325(1-3)93-98
     doi.org/10.1016/s0009-2614(00)00662-x

Timings for individual modules:

Sum of individual times          ...      255.819 sec (=   4.264 min)
Startup calculation              ...       13.892 sec (=   0.232 min)   5.4 %
SCF iterations                   ...      159.709 sec (=   2.662 min)  62.4 %
Property calculations            ...        0.072 sec (=   0.001 min)   0.0 %
SCF Gradient evaluation          ...       81.976 sec (=   1.366 min)  32.0 %
Geometry relaxation              ...        0.170 sec (=   0.003 min)   0.1 %
                             ****ORCA TERMINATED NORMALLY****
TOTAL RUN TIME: 0 days 0 hours 4 minutes 17 seconds 133 msec
