
                                 *****************
                                 * O   R   C   A *
                                 *****************

                                            #,                                       
                                            ###                                      
                                            ####                                     
                                            #####                                    
                                            ######                                   
                                           ########,                                 
                                     ,,################,,,,,                         
                               ,,#################################,,                 
                          ,,##########################################,,             
                       ,#########################################, ''#####,          
                    ,#############################################,,   '####,        
                  ,##################################################,,,,####,       
                ,###########''''           ''''###############################       
              ,#####''   ,,,,##########,,,,          '''####'''          '####       
            ,##' ,,,,###########################,,,                        '##       
           ' ,,###''''                  '''############,,,                           
         ,,##''                                '''############,,,,        ,,,,,,###''
      ,#''                                            '''#######################'''  
     '                                                          ''''####''''         
             ,#######,   #######,   ,#######,      ##                                
            ,#'     '#,  ##    ##  ,#'     '#,    #''#        ,####,   ,####,        
            ##       ##  ##   ,#'  ##            #'  '#       #'       #'  '#        
            ##       ##  #######   ##           ,######,      #####,   #    #        
            '#,     ,#'  ##    ##  '#,     ,#' ,#      #,     #,   #   #,  ,#        
             '#######'   ##     ##  '#######'  #'      '#     '####' # '####'        



                #########################################################
                #                        -***-                          #
                #          Department of theory and spectroscopy        #
                #                                                       #
                #                      Frank Neese                      #
                #                                                       #
                #     Directorship, Architecture, Infrastructure        #
                #                    SHARK, DRIVERS                     #
                #        Core code/Algorithms in most modules           #
                #                                                       #
                #        Max Planck Institute fuer Kohlenforschung      #
                #                Kaiser Wilhelm Platz 1                 #
                #                 D-45470 Muelheim/Ruhr                 #
                #                      Germany                          #
                #                                                       #
                #                  All rights reserved                  #
                #                        -***-                          #
                #########################################################


                         Program Version 6.0.0  -   RELEASE   -


 With contributions from (in alphabetic order):
   Daniel Aravena         : Magnetic Suceptibility
   Michael Atanasov       : Ab Initio Ligand Field Theory (pilot matlab implementation)
   Alexander A. Auer      : GIAO ZORA, VPT2 properties, NMR spectrum
   Ute Becker             : All parallelization in ORCA, NUMFREQ, NUMCALC
   Giovanni Bistoni       : ED, misc. LED, open-shell LED, HFLD
   Martin Brehm           : Molecular dynamics
   Dmytro Bykov           : pre 5.0 version of the SCF Hessian
   Marcos Casanova-Páez   : Triplet and SCS-CIS(D). UHF-(DLPNO)-IP/EA/STEOM-CCSD. UHF-CVS-IP/STEOM-CCSD
   Vijay G. Chilkuri      : MRCI spin determinant printing, contributions to CSF-ICE
   Pauline Colinet        : FMM embedding
   Dipayan Datta          : RHF DLPNO-CCSD density
   Achintya Kumar Dutta   : EOM-CC, STEOM-CC
   Nicolas Foglia         : Exact transition moments, OPA infrastructure, MCD improvements
   Dmitry Ganyushin       : Spin-Orbit,Spin-Spin,Magnetic field MRCI
   Miquel Garcia          : C-PCM and meta-GGA Hessian, CCSD/C-PCM, Gaussian charge scheme
   Tiago L. C. Gouveia    : GS-ROHF, GS-ROCIS
   Yang Guo               : DLPNO-NEVPT2, F12-NEVPT2, CIM, IAO-localization
   Andreas Hansen         : Spin unrestricted coupled pair/coupled cluster methods
   Ingolf Harden          : AUTO-CI MPn and infrastructure 
   Benjamin Helmich-Paris : MC-RPA, TRAH-(SCF,CASSCF), AVAS, COSX integrals, SCF dyn. polar.
   Lee Huntington         : MR-EOM, pCC
   Robert Izsak           : Overlap fitted RIJCOSX, COSX-SCS-MP3, EOM
   Riya Kayal             : Wick's Theorem for AUTO-CI, AUTO-CI UHF-CCSDT
   Emily Kempfer          : AUTO-CI, RHF CISDT and CCSDT
   Christian Kollmar      : KDIIS, OOCD, Brueckner-CCSD(T), CCSD density, CASPT2, CASPT2-K, improved NEVPT2
   Axel Koslowski         : Symmetry handling
   Simone Kossmann        : Meta GGA functionals, TD-DFT gradient, OOMP2, (MP2 Hessian; deprecated post 5.0)
   Lucas Lang             : DCDCAS
   Marvin Lechner         : AUTO-CI (C++ implementation), FIC-MRCC
   Spencer Leger          : CASSCF response
   Dagmar Lenk            : GEPOL surface, SMD, ORCA-2-JSON
   Dimitrios Liakos       : Extrapolation schemes; Compound Job, initial MDCI parallelization
   Dimitrios Manganas     : Further ROCIS development; embedding schemes. LFT, Crystal Embedding
   Dimitrios Pantazis     : SARC Basis sets
   Anastasios Papadopoulos: AUTO-CI, single reference methods and gradients
   Taras Petrenko         : pre 6.0 DFT Hessian and TD-DFT gradient, (ASA, deprecated), ECA, 1-Electron XAS/XES, NRVS
   Peter Pinski           : DLPNO-MP2, DLPNO-MP2 Gradient
   Christoph Reimann      : Effective Core Potentials
   Marius Retegan         : Local ZFS, SOC
   Christoph Riplinger    : Optimizer, TS searches, QM/MM, DLPNO-CCSD(T), (RO)-DLPNO pert. Triples
   Michael Roemelt        : Original ROCIS implementation
   Masaaki Saitow         : Open-shell DLPNO-CCSD energy and density
   Barbara Sandhoefer     : DKH picture change effects
   Kantharuban Sivalingam : CASSCF convergence/infrastructure, NEVPT2 and variants, FIC-MRCI
   Bernardo de Souza      : ESD, SOC TD-DFT
   Georgi Stoychev        : AutoAux, RI-MP2 NMR, DLPNO-MP2 response, X2C
   Van Anh Tran           : RI-MP2 g-tensors
   Willem Van den Heuvel  : Paramagnetic NMR
   Zikuan Wang            : NOTCH, Electric field optimization 
   Frank Wennmohs         : Technical directorship and infrastructure
   Hang Xu                : AUTO-CI-Response properties 


 We gratefully acknowledge several colleagues who have allowed us to
 interface, adapt or use parts of their codes:
   Stefan Grimme, W. Hujo, H. Kruse, P. Pracht,  : VdW corrections, initial TS optimization,
                  C. Bannwarth, S. Ehlert,         DFT functionals, gCP, sTDA/sTD-DF
                  L. Wittmann, M. Mueller
   Ed Valeev, F. Pavosevic, A. Kumar             : LibInt (2-el integral package), F12 methods
   Garnet Chan, S. Sharma, J. Yang, R. Olivares  : DMRG
   Ulf Ekstrom                                   : XCFun DFT Library
   Mihaly Kallay                                 : mrcc  (arbitrary order and MRCC methods)
   Frank Weinhold                                : gennbo (NPA and NBO analysis)
   Simon Mueller                                 : openCOSMO-RS
   Christopher J. Cramer and Donald G. Truhlar   : smd solvation model
   Lars Goerigk                                  : TD-DFT with DH, B97 family of functionals
   V. Asgeirsson, H. Jonsson                     : NEB implementation
   FAccTs GmbH                                   : IRC, NEB, NEB-TS, DLPNO-Multilevel, CI-OPT
                                                   MM, QMMM, 2- and 3-layer-ONIOM, Crystal-QMMM,
                                                   LR-CPCM, SF, NACMEs, symmetry and pop. for TD-DFT,
                                                   nearIR, NL-DFT gradient (VV10), updates on ESD,
                                                   ML-optimized integration grids, MBIS, APM,
                                                   GOAT, DOCKER, SOLVATOR, interface openCOSMO-RS
   S Lehtola, MJT Oliveira, MAL Marques          : LibXC Library
   Liviu Ungur et al                             : ANISO software


 Your calculation uses the libint2 library for the computation of 2-el integrals
 For citations please refer to: http://libint.valeyev.net

 Your ORCA version has been built with support for libXC version: 6.2.2
 For citations please refer to: https://libxc.gitlab.io

 This ORCA versions uses:
   CBLAS   interface :  Fast vector & matrix operations
   LAPACKE interface :  Fast linear algebra routines
   Shared memory     :  Shared parallel matrices


Warning: RI is on but no J-basis has been assigned. Assigning Def2/J (nothing to worry about!)
================================================================================

----- Orbital basis set information -----
Your calculation utilizes the basis: STO-3G
   H-Ne       : W. J. Hehre, R. F. Stewart and J. A. Pople, J. Chem. Phys. 2657 (1969).
   Na-Ar      : W. J. Hehre, R. Ditchfield, R. F. Stewart and J. A. Pople, J. Chem. Phys. 2769 (1970).
   K,Ca,Ga-Kr : W. J. Pietro, B. A. Levy, W. J. Hehre and R. F. Stewart, J. Am. Chem. Soc. 19, 2225 (1980).
   Sc-Zn,Y-Cd : W. J. Pietro and W. J. Hehre, J. Comp. Chem. 4, 241 (1983).

----- AuxJ basis set information -----
Your calculation utilizes the auxiliary basis: def2/J
   F. Weigend, Phys. Chem. Chem. Phys. 8, 1057 (2006).

================================================================================
                                        WARNINGS
                       Please study these warnings very carefully!
================================================================================


WARNING: Geometry Optimization
  ===> : Switching off AutoStart
         For restart on a previous wavefunction, please use MOREAD

================================================================================
                                       INPUT FILE
================================================================================
NAME = Triclosan\Triclosan_PBE_STO-3G\Triclosan_PBE_STO-3G.orcainp
|  1> # ORCA input file
|  2> # 
|  3> !PBE STO-3G Opt CPCM(WATER)
|  4> * xyz 0 1
|  5>    C       -0.49838         1.45672         0.09896
|  6>    C        0.83636         1.86187         0.13987
|  7>    C        1.85850         0.90964         0.07692
|  8>    C        1.52705        -0.44553         0.10327
|  9>    C        0.19399        -0.85911         0.06588
| 10>    C       -0.81311         0.09845         0.04328
| 11>   Cl       -2.45804        -0.38995        -0.04430
| 12>    O        2.48623        -1.41804         0.15924
| 13>    O        3.19540         1.23915         0.00408
| 14>    C        3.55840         2.36555        -0.71342
| 15>    C        4.59924         3.16189        -0.21840
| 16>    C        4.97545         4.33057        -0.88996
| 17>    C        4.31222         4.69779        -2.05616
| 18>    C        3.30213         3.89395        -2.58058
| 19>    C        2.94419         2.71337        -1.92599
| 20>   Cl        4.74503         6.15332        -2.86475
| 21>   Cl        5.43890         2.74189         1.23085
| 22>    H       -1.28677         2.20447         0.09898
| 23>    H        1.06264         2.92223         0.19335
| 24>    H       -0.04081        -1.92109         0.05235
| 25>    H        3.32941        -0.97731         0.37369
| 26>    H        5.77651         4.95189        -0.49678
| 27>    H        2.78688         4.18033        -3.49530
| 28>    H        2.16802         2.08687        -2.36091
| 29> **                         ****END OF INPUT****
================================================================================

                       *****************************
                       * Geometry Optimization Run *
                       *****************************

Geometry optimization settings:
Update method            Update   .... BFGS
Choice of coordinates    CoordSys .... (2022) Redundant Internals
Initial Hessian          InHess   .... Almloef's Model
Max. no of cycles        MaxIter  .... 72

Convergence Tolerances:
Energy Change            TolE     ....  5.0000e-06 Eh
Max. Gradient            TolMAXG  ....  3.0000e-04 Eh/bohr
RMS Gradient             TolRMSG  ....  1.0000e-04 Eh/bohr
Max. Displacement        TolMAXD  ....  4.0000e-03 bohr
RMS Displacement         TolRMSD  ....  2.0000e-03 bohr
Strict Convergence                .... False

------------------------------------------------------------------------------
                        ORCA OPTIMIZATION COORDINATE SETUP
------------------------------------------------------------------------------

The optimization will be done in redundant internal coordinates (2022)
Making redundant internal coordinates   ...  (2022 redundants) done
Evaluating the initial hessian          ...  (Almloef) done
Evaluating the coordinates              ...  done
Calculating the B-matrix                .... done
Calculating the G-matrix                .... done
Diagonalizing the G-matrix              .... done
Small eigenvalue found = 5.189e-03
Small eigenvalue found = 1.845e-02
Small eigenvalue found = 2.339e-02
The first mode is                       ....   52
The number of degrees of freedom        ....   66

    -----------------------------------------------------------------
                    Redundant Internal Coordinates


    -----------------------------------------------------------------
         Definition                    Initial Value    Approx d2E/dq
    -----------------------------------------------------------------
      1. B(C   1,C   0)                  1.3955         0.612355   
      2. B(C   2,C   1)                  1.3984         0.605849   
      3. B(C   3,C   2)                  1.3954         0.612606   
      4. B(C   4,C   3)                  1.3962         0.610629   
      5. B(C   5,C   4)                  1.3898         0.625141   
      6. B(C   5,C   0)                  1.3954         0.612596   
      7. B(Cl  6,C   5)                  1.7181         0.419963   
      8. B(O   7,C   3)                  1.3671         0.608733   
      9. B(O   8,C   2)                  1.3788         0.583028   
     10. B(C   9,O   8)                  1.3840         0.572147   
     11. B(C  10,C   9)                  1.4009         0.600249   
     12. B(C  11,C  10)                  1.3994         0.603574   
     13. B(C  12,C  11)                  1.3910         0.622616   
     14. B(C  13,C  12)                  1.3934         0.617128   
     15. B(C  14,C   9)                  1.4031         0.595543   
     16. B(C  14,C  13)                  1.3966         0.609921   
     17. B(Cl 15,C  12)                  1.7204         0.416517   
     18. B(Cl 16,C  10)                  1.7268         0.406846   
     19. B(H  17,C   0)                  1.0866         0.364633   
     20. B(H  18,C   1)                  1.0856         0.366031   
     21. B(H  19,C   4)                  1.0877         0.363141   
     22. B(H  20,O   8)                  2.2511         0.004531   
     23. B(H  20,O   7)                  0.9753         0.491561   
     24. B(H  21,C  11)                  1.0873         0.363625   
     25. B(H  22,C  13)                  1.0882         0.362471   
     26. B(H  23,C  14)                  1.0882         0.362539   
     27. A(C   1,C   0,H  17)          119.6162         0.352915   
     28. A(C   1,C   0,C   5)          119.9682         0.432164   
     29. A(C   5,C   0,H  17)          120.4118         0.352938   
     30. A(C   0,C   1,H  18)          118.9740         0.353144   
     31. A(C   2,C   1,H  18)          120.9976         0.352506   
     32. A(C   0,C   1,C   2)          120.0073         0.431305   
     33. A(C   1,C   2,C   3)          119.1344         0.431337   
     34. A(C   1,C   2,O   8)          123.2546         0.424738   
     35. A(C   3,C   2,O   8)          117.6070         0.425582   
     36. A(C   2,C   3,C   4)          120.9279         0.431946   
     37. A(C   4,C   3,O   7)          117.4034         0.428636   
     38. A(C   2,C   3,O   7)          121.6678         0.428885   
     39. A(C   3,C   4,C   5)          119.2209         0.433522   
     40. A(C   5,C   4,H  19)          121.0675         0.353906   
     41. A(C   3,C   4,H  19)          119.7115         0.352502   
     42. A(C   0,C   5,Cl  6)          119.6487         0.422262   
     43. A(C   0,C   5,C   4)          120.4351         0.433773   
     44. A(C   4,C   5,Cl  6)          119.9152         0.423795   
     45. A(C   3,O   7,H  20)          107.1047         0.365416   
     46. A(C   2,O   8,C   9)          118.4377         0.417690   
     47. A(O   8,C   9,C  10)          118.3161         0.422608   
     48. A(C  10,C   9,C  14)          119.3218         0.428441   
     49. A(O   8,C   9,C  14)          122.3438         0.422014   
     50. A(C   9,C  10,C  11)          120.3239         0.429471   
     51. A(C  11,C  10,Cl 16)          118.3700         0.418768   
     52. A(C   9,C  10,Cl 16)          121.3041         0.418356   
     53. A(C  12,C  11,H  21)          120.2377         0.353744   
     54. A(C  10,C  11,H  21)          120.1142         0.351889   
     55. A(C  10,C  11,C  12)          119.6461         0.432302   
     56. A(C  13,C  12,Cl 15)          119.5757         0.422197   
     57. A(C  11,C  12,Cl 15)          119.8326         0.422865   
     58. A(C  11,C  12,C  13)          120.5911         0.434032   
     59. A(C  12,C  13,C  14)          119.8068         0.432427   
     60. A(C  14,C  13,H  22)          119.6764         0.352323   
     61. A(C  12,C  13,H  22)          120.5164         0.353024   
     62. A(C   9,C  14,C  13)          120.1619         0.429671   
     63. A(C  13,C  14,H  23)          118.8279         0.352334   
     64. A(C   9,C  14,H  23)          120.9938         0.350916   
     65. D(C   2,C   1,C   0,H  17)   -177.0031         0.025909   
     66. D(H  18,C   1,C   0,H  17)      1.3416         0.025909   
     67. D(C   2,C   1,C   0,C   5)      2.2818         0.025909   
     68. D(H  18,C   1,C   0,C   5)   -179.3735         0.025909   
     69. D(C   3,C   2,C   1,H  18)    175.5746         0.025331   
     70. D(O   8,C   2,C   1,H  18)     -3.6759         0.025331   
     71. D(O   8,C   2,C   1,C   0)    174.6347         0.025331   
     72. D(C   3,C   2,C   1,C   0)     -6.1148         0.025331   
     73. D(O   7,C   3,C   2,O   8)      4.9411         0.025932   
     74. D(O   7,C   3,C   2,C   1)   -174.3516         0.025932   
     75. D(C   4,C   3,C   2,O   8)   -174.7104         0.025932   
     76. D(C   4,C   3,C   2,C   1)      5.9969         0.025932   
     77. D(H  19,C   4,C   3,C   2)    177.8731         0.025755   
     78. D(C   5,C   4,C   3,O   7)    178.3616         0.025755   
     79. D(C   5,C   4,C   3,C   2)     -1.9726         0.025755   
     80. D(H  19,C   4,C   3,O   7)     -1.7928         0.025755   
     81. D(Cl  6,C   5,C   4,H  19)     -1.4413         0.027070   
     82. D(C   0,C   5,C   4,H  19)    178.1925         0.027070   
     83. D(C   0,C   5,C   4,C   3)     -1.9640         0.027070   
     84. D(Cl  6,C   5,C   0,H  17)      0.7193         0.025931   
     85. D(Cl  6,C   5,C   0,C   1)   -178.5598         0.025931   
     86. D(Cl  6,C   5,C   4,C   3)    178.4022         0.027070   
     87. D(C   4,C   5,C   0,H  17)   -178.9155         0.025931   
     88. D(C   4,C   5,C   0,C   1)      1.8053         0.025931   
     89. D(H  20,O   7,C   3,C   4)   -167.9419         0.027116   
     90. D(H  20,O   7,C   3,C   2)     12.3948         0.027116   
     91. D(C   9,O   8,C   2,C   3)    145.4603         0.027282   
     92. D(C   9,O   8,C   2,C   1)    -35.2785         0.027282   
     93. D(C  14,C   9,O   8,C   2)    -39.3694         0.026210   
     94. D(C  10,C   9,O   8,C   2)    142.2004         0.026210   
     95. D(C  11,C  10,C   9,O   8)   -178.1978         0.024839   
     96. D(Cl 16,C  10,C   9,C  14)   -177.1840         0.024839   
     97. D(Cl 16,C  10,C   9,O   8)      1.2949         0.024839   
     98. D(C  11,C  10,C   9,C  14)      3.3233         0.024839   
     99. D(H  21,C  11,C  10,Cl 16)     -0.1788         0.025130   
    100. D(H  21,C  11,C  10,C   9)    179.3286         0.025130   
    101. D(C  12,C  11,C  10,Cl 16)   -179.6682         0.025130   
    102. D(C  12,C  11,C  10,C   9)     -0.1608         0.025130   
    103. D(Cl 15,C  12,C  11,H  21)     -0.9707         0.026838   
    104. D(Cl 15,C  12,C  11,C  10)    178.5182         0.026838   
    105. D(C  13,C  12,C  11,H  21)    178.7584         0.026838   
    106. D(C  13,C  12,C  11,C  10)     -1.7528         0.026838   
    107. D(H  22,C  13,C  12,Cl 15)     -0.0147         0.026339   
    108. D(H  22,C  13,C  12,C  11)   -179.7444         0.026339   
    109. D(C  14,C  13,C  12,Cl 15)   -179.8112         0.026339   
    110. D(C  14,C  13,C  12,C  11)      0.4591         0.026339   
    111. D(H  23,C  14,C  13,H  22)      1.4971         0.025692   
    112. D(H  23,C  14,C  13,C  12)   -178.7046         0.025692   
    113. D(C   9,C  14,C  13,H  22)   -177.0456         0.025692   
    114. D(C   9,C  14,C  13,C  12)      2.7526         0.025692   
    115. D(H  23,C  14,C   9,C  10)    176.8704         0.024431   
    116. D(H  23,C  14,C   9,O   8)     -1.5445         0.024431   
    117. D(C  13,C  14,C   9,C  10)     -4.6189         0.024431   
    118. D(C  13,C  14,C   9,O   8)    176.9661         0.024431   
    -----------------------------------------------------------------

Number of atoms                         .... 24
Number of degrees of freedom            .... 118


         *************************************************************
         *                GEOMETRY OPTIMIZATION CYCLE   1            *
         *************************************************************
---------------------------------
CARTESIAN COORDINATES (ANGSTROEM)
---------------------------------
  C     -0.498380    1.456720    0.098960
  C      0.836360    1.861870    0.139870
  C      1.858500    0.909640    0.076920
  C      1.527050   -0.445530    0.103270
  C      0.193990   -0.859110    0.065880
  C     -0.813110    0.098450    0.043280
  Cl    -2.458040   -0.389950   -0.044300
  O      2.486230   -1.418040    0.159240
  O      3.195400    1.239150    0.004080
  C      3.558400    2.365550   -0.713420
  C      4.599240    3.161890   -0.218400
  C      4.975450    4.330570   -0.889960
  C      4.312220    4.697790   -2.056160
  C      3.302130    3.893950   -2.580580
  C      2.944190    2.713370   -1.925990
  Cl     4.745030    6.153320   -2.864750
  Cl     5.438900    2.741890    1.230850
  H     -1.286770    2.204470    0.098980
  H      1.062640    2.922230    0.193350
  H     -0.040810   -1.921090    0.052350
  H      3.329410   -0.977310    0.373690
  H      5.776510    4.951890   -0.496780
  H      2.786880    4.180330   -3.495300
  H      2.168020    2.086870   -2.360910

----------------------------
CARTESIAN COORDINATES (A.U.)
----------------------------
  NO LB      ZA    FRAG     MASS         X           Y           Z
   0 C     6.0000    0    12.011   -0.941802    2.752802    0.187007
   1 C     6.0000    0    12.011    1.580491    3.518424    0.264316
   2 C     6.0000    0    12.011    3.512056    1.718970    0.145358
   3 C     6.0000    0    12.011    2.885706   -0.841930    0.195152
   4 C     6.0000    0    12.011    0.366588   -1.623483    0.124495
   5 C     6.0000    0    12.011   -1.536555    0.186044    0.081787
   6 Cl   17.0000    0    35.453   -4.645022   -0.736899   -0.083715
   7 O     8.0000    0    15.999    4.698294   -2.679707    0.300920
   8 O     8.0000    0    15.999    6.038431    2.341654    0.007710
   9 C     6.0000    0    12.011    6.724401    4.470242   -1.348168
  10 C     6.0000    0    12.011    8.691304    5.975106   -0.412716
  11 C     6.0000    0    12.011    9.402238    8.183591   -1.681781
  12 C     6.0000    0    12.011    8.148915    8.877537   -3.885579
  13 C     6.0000    0    12.011    6.240121    7.358499   -4.876589
  14 C     6.0000    0    12.011    5.563713    5.127526   -3.639594
  15 Cl   17.0000    0    35.453    8.966807   11.628090   -5.413593
  16 Cl   17.0000    0    35.453   10.278031    5.181421    2.325969
  17 H     1.0000    0     1.008   -2.431643    4.165845    0.187045
  18 H     1.0000    0     1.008    2.008099    5.522214    0.365379
  19 H     1.0000    0     1.008   -0.077120   -3.630334    0.098927
  20 H     1.0000    0     1.008    6.291673   -1.846848    0.706172
  21 H     1.0000    0     1.008   10.916022    9.357716   -0.938778
  22 H     1.0000    0     1.008    5.266440    7.899679   -6.605160
  23 H     1.0000    0     1.008    4.096964    3.943613   -4.461473

--------------------------------
INTERNAL COORDINATES (ANGSTROEM)
--------------------------------
 C      0   0   0     0.000000000000     0.00000000     0.00000000
 C      1   0   0     1.395475194405     0.00000000     0.00000000
 C      2   1   0     1.398382942902   120.00730714     0.00000000
 C      3   2   1     1.395363448676   119.13439743   353.88521152
 C      4   3   2     1.396243314075   120.92787852     5.99690044
 C      5   4   3     1.389849748570   119.22087215   358.02744876
 Cl     6   5   4     1.718138388285   119.91522697   178.40217544
 O      4   3   2     1.367089833698   121.66780929   185.64837581
 O      3   2   1     1.378834332217   123.25460873   174.63471367
 C      9   3   2     1.383962503105   118.43773013   324.72150892
 C     10   9   3     1.400910454526   118.31610011   142.20041341
 C     11  10   9     1.399406924415   120.32394736   181.80216421
 C     12  11  10     1.390951832847   119.64607025   359.83916149
 C     13  12  11     1.393361722633   120.59113197   358.24719922
 C     14  13  12     1.396559432355   119.80682487     0.45907096
 Cl    13  12  11     1.720380732600   119.83263710   178.51818599
 Cl    11  10   9     1.726775746326   121.30414926     1.29488420
 H      1   2   3     1.086595074073   119.61615663   182.99686979
 H      2   1   3     1.085553351245   118.97395465   178.34468767
 H      5   4   3     1.087711184690   119.71147944   177.87310101
 H      8   4   3     0.975286751576   107.10469875    12.39482959
 H     12  11  10     1.087348232352   120.11423103   179.32864385
 H     14  13  12     1.088213556844   120.51644043   180.25560822
 H     15  14  13     1.088162453543   118.82789416   181.29536685

---------------------------
INTERNAL COORDINATES (A.U.)
---------------------------
 C      0   0   0     0.000000000000     0.00000000     0.00000000
 C      1   0   0     2.637065944106     0.00000000     0.00000000
 C      2   1   0     2.642560792432   120.00730714     0.00000000
 C      3   2   1     2.636854775281   119.13439743   353.88521152
 C      4   3   2     2.638517479921   120.92787852     5.99690044
 C      5   4   3     2.626435392097   119.22087215   358.02744876
 Cl     6   5   4     3.246811014036   119.91522697   178.40217544
 O      4   3   2     2.583425386157   121.66780929   185.64837581
 O      3   2   1     2.605619271938   123.25460873   174.63471367
 C      9   3   2     2.615310110484   118.43773013   324.72150892
 C     10   9   3     2.647337097201   118.31610011   142.20041341
 C     11  10   9     2.644495837057   120.32394736   181.80216421
 C     12  11  10     2.628518029556   119.64607025   359.83916149
 C     13  12  11     2.633072061266   120.59113197   358.24719922
 C     14  13  12     2.639114856896   119.80682487     0.45907096
 Cl    13  12  11     3.251048430688   119.83263710   178.51818599
 Cl    11  10   9     3.263133255254   121.30414926     1.29488420
 H      1   2   3     2.053367108466   119.61615663   182.99686979
 H      2   1   3     2.051398537614   118.97395465   178.34468767
 H      5   4   3     2.055476251867   119.71147944   177.87310101
 H      8   4   3     1.843024862521   107.10469875    12.39482959
 H     12  11  10     2.054790371350   120.11423103   179.32864385
 H     14  13  12     2.056425597656   120.51644043   180.25560822
 H     15  14  13     2.056329026411   118.82789416   181.29536685

---------------------
BASIS SET INFORMATION
---------------------
There are 4 groups of distinct atoms

 Group   1 Type C   : 6s3p contracted to 2s1p pattern {33/3}
 Group   2 Type Cl  : 9s6p contracted to 3s2p pattern {333/33}
 Group   3 Type O   : 6s3p contracted to 2s1p pattern {33/3}
 Group   4 Type H   : 3s contracted to 1s pattern {3}

Atom   0C    basis set group =>   1
Atom   1C    basis set group =>   1
Atom   2C    basis set group =>   1
Atom   3C    basis set group =>   1
Atom   4C    basis set group =>   1
Atom   5C    basis set group =>   1
Atom   6Cl   basis set group =>   2
Atom   7O    basis set group =>   3
Atom   8O    basis set group =>   3
Atom   9C    basis set group =>   1
Atom  10C    basis set group =>   1
Atom  11C    basis set group =>   1
Atom  12C    basis set group =>   1
Atom  13C    basis set group =>   1
Atom  14C    basis set group =>   1
Atom  15Cl   basis set group =>   2
Atom  16Cl   basis set group =>   2
Atom  17H    basis set group =>   4
Atom  18H    basis set group =>   4
Atom  19H    basis set group =>   4
Atom  20H    basis set group =>   4
Atom  21H    basis set group =>   4
Atom  22H    basis set group =>   4
Atom  23H    basis set group =>   4
---------------------------------
AUXILIARY/J BASIS SET INFORMATION
---------------------------------
There are 4 groups of distinct atoms

 Group   1 Type C   : 12s5p4d2f1g contracted to 6s4p3d1f1g pattern {711111/2111/211/2/1}
 Group   2 Type Cl  : 14s5p5d2f1g contracted to 8s4p3d1f1g pattern {71111111/2111/311/2/1}
 Group   3 Type O   : 12s5p4d2f1g contracted to 6s4p3d1f1g pattern {711111/2111/211/2/1}
 Group   4 Type H   : 5s2p1d contracted to 3s1p1d pattern {311/2/1}

Atom   0C    basis set group =>   1
Atom   1C    basis set group =>   1
Atom   2C    basis set group =>   1
Atom   3C    basis set group =>   1
Atom   4C    basis set group =>   1
Atom   5C    basis set group =>   1
Atom   6Cl   basis set group =>   2
Atom   7O    basis set group =>   3
Atom   8O    basis set group =>   3
Atom   9C    basis set group =>   1
Atom  10C    basis set group =>   1
Atom  11C    basis set group =>   1
Atom  12C    basis set group =>   1
Atom  13C    basis set group =>   1
Atom  14C    basis set group =>   1
Atom  15Cl   basis set group =>   2
Atom  16Cl   basis set group =>   2
Atom  17H    basis set group =>   4
Atom  18H    basis set group =>   4
Atom  19H    basis set group =>   4
Atom  20H    basis set group =>   4
Atom  21H    basis set group =>   4
Atom  22H    basis set group =>   4
Atom  23H    basis set group =>   4
------------------------------------------------------------------------------
                             ORCA STARTUP CALCULATIONS
                           -- RI-GTO INTEGRALS CHOSEN --
------------------------------------------------------------------------------
------------------------------------------------------------------------------
                   ___                                                        
                  /   \      - P O W E R E D   B Y -                         
                 /     \                                                     
                 |  |  |   _    _      __       _____    __    __             
                 |  |  |  | |  | |    /  \     |  _  \  |  |  /  |          
                  \  \/   | |  | |   /    \    | | | |  |  | /  /          
                 / \  \   | |__| |  /  /\  \   | |_| |  |  |/  /          
                |  |  |   |  __  | /  /__\  \  |    /   |      \           
                |  |  |   | |  | | |   __   |  |    \   |  |\   \          
                \     /   | |  | | |  |  |  |  | |\  \  |  | \   \       
                 \___/    |_|  |_| |__|  |__|  |_| \__\ |__|  \__/        
                                                                              
                      - O R C A' S   B I G   F R I E N D -                    
                                      &                                       
                       - I N T E G R A L  F E E D E R -                       
                                                                              
 v1 FN, 2020, v2 2021, v3 2022-2024                                           
------------------------------------------------------------------------------


----------------------
SHARK INTEGRAL PACKAGE
----------------------

Number of atoms                             ...     24
Number of basis functions                   ...    104
Number of shells                            ...     64
Maximum angular momentum                    ...      1
Integral batch strategy                     ... SHARK/LIBINT Hybrid
RI-J (if used) integral strategy            ... SPLIT-RIJ (Revised 2003 algorithm where possible)
Printlevel                                  ...      1
Contraction scheme used                     ... SEGMENTED contraction
Prescreening option                         ... SCHWARTZ
   Thresh                                   ... 2.500e-11
   Tcut                                     ... 2.500e-12
   Tpresel                                  ... 2.500e-12 
Coulomb Range Separation                    ... NOT USED
Exchange Range Separation                   ... NOT USED
Multipole approximations                    ... NOT USED
Finite Nucleus Model                        ... NOT USED
CABS basis                                  ... NOT available
Auxiliary Coulomb fitting basis             ... AVAILABLE
   # of basis functions in Aux-J            ...    916
   # of shells in Aux-J                     ...    296
   Maximum angular momentum in Aux-J        ...      4
Auxiliary J/K fitting basis                 ... NOT available
Auxiliary Correlation fitting basis         ... NOT available
Auxiliary 'external' fitting basis          ... NOT available

Checking pre-screening integrals            ... done (  0.0 sec) Dimension = 64
Check shell pair data                       ... done (  0.0 sec)
Shell pair information
Shell pair cut-off parameter TPreSel        ...   2.5e-12
Total number of shell pairs                 ...      2080
Shell pairs after pre-screening             ...      1547
Total number of primitive shell pairs       ...     18720
Primitive shell pairs kept                  ...      9002
          la=0 lb=0:    686 shell pairs
          la=1 lb=0:    685 shell pairs
          la=1 lb=1:    176 shell pairs

Calculating one electron integrals          ... done (  0.0 sec)
Calculating RI/J V-Matrix + Cholesky decomp.... done (  0.0 sec)
Calculating Nuclear repulsion               ... done (  0.0 sec) ENN=   1433.084984797995 Eh

Diagonalization of the overlap matrix:
Smallest eigenvalue                        ... 1.726e-01
Time for diagonalization                   ...    0.001 sec
Threshold for overlap eigenvalues          ... 1.000e-07
Number of eigenvalues below threshold      ... 0
Time for construction of square roots      ...    0.001 sec
Total time needed                          ...    0.003 sec

-------------------
DFT GRID GENERATION
-------------------

General Integration Accuracy     IntAcc      ... 4.388
Radial Grid Type                 RadialGrid  ... OptM3 with GC (2021)
Angular Grid (max. ang.)         AngularGrid ... 4 (Lebedev-302)
Angular grid pruning method      GridPruning ... 4 (adaptive)
Weight generation scheme         WeightScheme... mBecke (2022)
Basis function cutoff            BFCut       ... 1.0000e-11
Integration weight cutoff        WCut        ... 1.0000e-14
Partially contracted basis set               ... off
Rotationally invariant grid construction     ... off
Angular grids for H and He will be reduced by one unit

Total number of grid points                  ...   128284
Total number of batches                      ...     2017
Average number of points per batch           ...       63
Average number of grid points per atom       ...     5345
Initializing property integral containers    ... done (  0.0 sec)

SHARK setup successfully completed in   0.6 seconds

Maximum memory used throughout the entire STARTUP-calculation: 45.2 MB
-------------------------------------------------------------------------------
                                 ORCA GUESS
                   Start orbitals & Density for SCF / CASSCF
-------------------------------------------------------------------------------

------------
SCF SETTINGS
------------
Hamiltonian:
 Density Functional     Method          .... DFT(GTOs)
 Exchange Functional    Exchange        .... PBE
   PBE kappa parameter   XKappa         ....  0.804000
   PBE mue parameter    XMuePBE         ....  0.219520
 Correlation Functional Correlation     .... PBE
   PBE beta parameter  CBetaPBE         ....  0.066725
 LDA part of GGA corr.  LDAOpt          .... PW91-LDA
 Gradients option       PostSCFGGA      .... off
   NL short-range parameter             ....  6.400000
 RI-approximation to the Coulomb term is turned on
   Number of AuxJ basis functions       .... 916


General Settings:
 Integral files         IntName         .... Triclosan\Triclosan_PBE_STO-3G\Triclosan_PBE_STO-3G.orcainp
 Hartree-Fock type      HFTyp           .... RHF
 Total Charge           Charge          ....    0
 Multiplicity           Mult            ....    1
 Number of Electrons    NEL             ....  146
 Basis Dimension        Dim             ....  104
 Nuclear Repulsion      ENuc            ....   1433.0849847980 Eh

Convergence Acceleration:
 AO-DIIS                CNVDIIS         .... on
   Start iteration      DIISMaxIt       ....    12
   Startup error        DIISStart       ....  0.200000
   # of expansion vecs  DIISMaxEq       ....     5
   Bias factor          DIISBfac        ....   1.050
   Max. coefficient     DIISMaxC        ....  10.000
 MO-DIIS                CNVKDIIS        .... off
 Trust-Rad. Augm. Hess. CNVTRAH         .... auto
   Auto Start mean grad. ratio tolernc. ....  1.125000
   Auto Start start iteration           ....    50
   Auto Start num. interpolation iter.  ....    10
   Max. Number of Micro iterations      ....    24
   Max. Number of Macro iterations      .... Maxiter - #DIIS iter
   Number of Davidson start vectors     ....     2
   Converg. threshold    (grad. norm)   ....   1.000e-05
   Grad. Scal. Fac. for Micro threshold ....   0.100
   Minimum threshold for Micro iter.    ....   1.000e-02
   NR start threshold (gradient norm)   ....   1.000e-04
   Initial trust radius                 ....   0.400
   Minimum AH scaling param. (alpha)    ....   1.000
   Maximum AH scaling param. (alpha)    .... 1000.000
   Quad. conv. algorithm                .... NR
   White noise on init. David. guess    .... on
   Maximum white noise                  ....   0.010
   Pseudo random numbers                .... off
   Inactive MOs                         .... canonical
   Orbital update algorithm             .... Taylor
   Preconditioner                       .... Diag
   Full preconditioner red. dimension   ....   250
 SOSCF                  CNVSOSCF        .... on
   Start iteration      SOSCFMaxIt      ....   150
   Startup grad/error   SOSCFStart      ....  0.003300
   Hessian update       SOSCFHessUp     .... L-BFGS
 Level Shifting         CNVShift        .... on
   Level shift para.    LevelShift      ....    0.2500
   Turn off err/grad.   ShiftErr        ....    0.0010
 Zerner damping         CNVZerner       .... off
 Static damping         CNVDamp         .... on
   Fraction old density DampFac         ....    0.7000
   Max. Damping (<1)    DampMax         ....    0.9800
   Min. Damping (>=0)   DampMin         ....    0.0000
   Turn off err/grad.   DampErr         ....    0.1000

SCF Procedure:
 Maximum # iterations   MaxIter         ....   125
 SCF integral mode      SCFMode         .... Direct
   Integral package                     .... SHARK and LIBINT hybrid scheme
 Reset frequency        DirectResetFreq ....    20
 Integral Threshold     Thresh          ....  2.500e-11 Eh
 Primitive CutOff       TCut            ....  2.500e-12 Eh

Convergence Tolerance:
 Convergence Check Mode ConvCheckMode   .... Total+1el-Energy
 Convergence forced     ConvForced      .... 0
 Energy Change          TolE            ....  1.000e-08 Eh
 1-El. energy change                    ....  1.000e-05 Eh
 Orbital Gradient       TolG            ....  1.000e-05
 Orbital Rotation angle TolX            ....  1.000e-05
 DIIS Error             TolErr          ....  5.000e-07

------------------------------
INITIAL GUESS: MODEL POTENTIAL
------------------------------
Loading Hartree-Fock densities                     ... done
Calculating cut-offs                               ... done
Initializing the effective Hamiltonian             ... done
Setting up the integral package (SHARK)            ... done
Starting the Coulomb interaction                   ... done (   0.1 sec)
Making the grid                                    ... done (   0.2 sec)
Mapping shells                                     ... done
Starting the XC term evaluation                    ... done (   0.1 sec)
  promolecular density results
     # of electrons  =    145.990663720
     EX              =   -161.966494946
     EC              =     -5.226448839
     EX+EC           =   -167.192943785
Transforming the Hamiltonian                       ... done (   0.0 sec)
Diagonalizing the Hamiltonian                      ... done (   0.0 sec)
Back transforming the eigenvectors                 ... done (   0.0 sec)
Now organizing SCF variables                       ... done
                      ------------------
                      INITIAL GUESS DONE (   0.3 sec)
                      ------------------
             **** ENERGY FILE WAS UPDATED (Triclosan\Triclosan_PBE_STO-3G\Triclosan_PBE_STO-3G.orcainp.en.tmp) ****
Finished Guess after   0.4 sec
Maximum memory used throughout the entire GUESS-calculation: 19.5 MB

-------------------------------------------------------------------------------------------
                                      ORCA LEAN-SCF
                              memory conserving SCF solver
-------------------------------------------------------------------------------------------

--------------------
CPCM SOLVATION MODEL
--------------------
CPCM parameters:
  Epsilon                                         ...      80.1510
  Refrac                                          ...       1.3328
  Rsolv                                           ...       1.3000
  Surface type                                    ... GAUSSIAN VDW
  Discretization scheme                           ... Constant charge density
    Threshold for H atoms                         ...       5.0000 (charges/Ang^2)
    Threshold for non-H atoms                     ...       5.0000 (charges/Ang^2)
  Epsilon function type                           ...         CPCM
Solvent:                                          ... WATER
Radii:
  Scheme                                          ... Element-dependent radii
  Radius for C  used is    3.8550 Bohr (=   2.0400 Ang.)
  Radius for Cl used is    3.9684 Bohr (=   2.1000 Ang.)
  Radius for O  used is    3.4469 Bohr (=   1.8240 Ang.)
  Radius for H  used is    2.4944 Bohr (=   1.3200 Ang.)
Calculating surface                               ...        done! (  0.0s)
Cavity surface points                             ...         2518
Cavity Volume                                     ...    1981.6541
Cavity Surface-area                               ...    1034.6095
Calculating surface distance matrix               ...        done! (  0.0s)
Performing Cholesky decomposition & store         ...        done! (  0.1s)
Overall time for CPCM initialization              ...                 0.1s

----------------------------------------D-I-I-S--------------------------------------------
Iteration    Energy (Eh)           Delta-E    RMSDP     MaxDP     DIISErr   Damp  Time(sec)
-------------------------------------------------------------------------------------------
               ***  Starting incremental Fock matrix formation  ***
    1    -1968.3654813961827585     0.00e+00  4.16e-03  5.90e-02  1.12e-01  0.700   0.8
    2    -1968.4098295846081328    -4.43e-02  3.08e-03  4.47e-02  6.49e-02  0.700   0.7
                               ***Turning on AO-DIIS***
    3    -1968.4274561180216097    -1.76e-02  1.30e-03  1.97e-02  3.01e-02  0.700   0.7
    4    -1968.4372830762629292    -9.83e-03  2.11e-03  3.17e-02  1.61e-02  0.000   0.7
    5    -1968.4583061613482187    -2.10e-02  5.32e-04  8.51e-03  6.35e-03  0.000   0.7
                              *** Initializing SOSCF ***
---------------------------------------S-O-S-C-F--------------------------------------
Iteration    Energy (Eh)           Delta-E    RMSDP     MaxDP     MaxGrad    Time(sec)
--------------------------------------------------------------------------------------
    6    -1968.4587158304382228    -4.10e-04  1.71e-04  2.37e-03  1.79e-03     0.7
               *** Restarting incremental Fock matrix formation ***
    7    -1968.4587588096703712    -4.30e-05  1.96e-04  3.51e-03  5.05e-04     0.8
    8    -1968.4587578031789690     1.01e-06  1.01e-04  2.19e-03  5.31e-04     0.7
    9    -1968.4587659244659790    -8.12e-06  6.21e-05  1.12e-03  1.38e-04     0.7
   10    -1968.4587656903402149     2.34e-07  3.46e-05  6.58e-04  1.33e-04     0.6
   11    -1968.4587667506286834    -1.06e-06  1.94e-05  3.16e-04  4.06e-05     0.6
   12    -1968.4587667064517973     4.42e-08  1.16e-05  2.17e-04  4.98e-05     0.6
   13    -1968.4587668234855755    -1.17e-07  3.67e-06  6.63e-05  5.75e-06     0.6
   14    -1968.4587668197143557     3.77e-09  2.29e-06  4.41e-05  9.69e-06     0.6
                 **** Energy Check signals convergence ****

               *****************************************************
               *                     SUCCESS                       *
               *           SCF CONVERGED AFTER  14 CYCLES          *
               *****************************************************

             **** ENERGY FILE WAS UPDATED (Triclosan\Triclosan_PBE_STO-3G\Triclosan_PBE_STO-3G.orcainp.en.tmp) ****

----------------
TOTAL SCF ENERGY
----------------

Total Energy       :      -1968.45876681971436 Eh          -53564.48621 eV

Components:
Nuclear Repulsion  :       1433.08498479799505 Eh           38996.22497 eV
Electronic Energy  :      -3401.53443129207653 Eh          -92560.45756 eV
One Electron Energy:      -5562.14571235316907 Eh         -151353.67951 eV
Two Electron Energy:       2160.61128106109254 Eh           58793.22195 eV
CPCM Dielectric    :         -0.00932032563297 Eh              -0.25362 eV

Virial components:
Potential Energy   :      -3901.33270223588988 Eh         -106160.65993 eV
Kinetic Energy     :       1932.87393541617575 Eh           52596.17372 eV
Virial Ratio       :          2.01841032193125

DFT components:
N(Alpha)           :       73.000012908021 electrons
N(Beta)            :       73.000012908021 electrons
N(Total)           :      146.000025816042 electrons
E(X)               :     -162.694794111935 Eh       
E(C)               :       -5.408432338777 Eh       
E(XC)              :     -168.103226450712 Eh       

CPCM Solvation Model Properties:
Surface-charge          :         -0.00592980123953
Corrected charge        :          0.00000000000000
Outlying charge corr.   :          0.00000196563637 Eh               0.00005 eV
Free-energy (cav+disp)  :  This term is not implemented in the current solvation scheme

---------------
SCF CONVERGENCE
---------------

  Last Energy change         ...   -3.7712e-09  Tolerance :   1.0000e-08
  Last MAX-Density change    ...    4.4116e-05  Tolerance :   1.0000e-07
  Last RMS-Density change    ...    2.2948e-06  Tolerance :   5.0000e-09
  Last DIIS Error            ...    1.7901e-03  Tolerance :   5.0000e-07
  Last Orbital Gradient      ...    9.6904e-06  Tolerance :   1.0000e-05
  Last Orbital Rotation      ...    1.8530e-05  Tolerance :   1.0000e-05


----------------
ORBITAL ENERGIES
----------------

  NO   OCC          E(Eh)            E(eV) 
   0   2.0000     -99.625376     -2710.9443 
   1   2.0000     -99.619764     -2710.7916 
   2   2.0000     -99.609296     -2710.5067 
   3   2.0000     -18.622576      -506.7461 
   4   2.0000     -18.576954      -505.5046 
   5   2.0000      -9.811121      -266.9742 
   6   2.0000      -9.797389      -266.6005 
   7   2.0000      -9.792161      -266.4583 
   8   2.0000      -9.788168      -266.3496 
   9   2.0000      -9.784884      -266.2602 
  10   2.0000      -9.776335      -266.0276 
  11   2.0000      -9.751827      -265.3607 
  12   2.0000      -9.744606      -265.1642 
  13   2.0000      -9.742861      -265.1167 
  14   2.0000      -9.725611      -264.6473 
  15   2.0000      -9.724276      -264.6110 
  16   2.0000      -9.720525      -264.5089 
  17   2.0000      -8.988786      -244.5973 
  18   2.0000      -8.983777      -244.4610 
  19   2.0000      -8.974185      -244.2000 
  20   2.0000      -6.841887      -186.1772 
  21   2.0000      -6.836754      -186.0375 
  22   2.0000      -6.826989      -185.7718 
  23   2.0000      -6.823878      -185.6872 
  24   2.0000      -6.822920      -185.6611 
  25   2.0000      -6.818904      -185.5518 
  26   2.0000      -6.817897      -185.5244 
  27   2.0000      -6.809321      -185.2911 
  28   2.0000      -6.808341      -185.2644 
  29   2.0000      -0.970926       -26.4202 
  30   2.0000      -0.932519       -25.3751 
  31   2.0000      -0.797630       -21.7046 
  32   2.0000      -0.774975       -21.0881 
  33   2.0000      -0.764346       -20.7989 
  34   2.0000      -0.720205       -19.5978 
  35   2.0000      -0.711872       -19.3710 
  36   2.0000      -0.648580       -17.6488 
  37   2.0000      -0.644749       -17.5445 
  38   2.0000      -0.639739       -17.4082 
  39   2.0000      -0.602203       -16.3868 
  40   2.0000      -0.543760       -14.7965 
  41   2.0000      -0.533654       -14.5215 
  42   2.0000      -0.516075       -14.0431 
  43   2.0000      -0.498562       -13.5666 
  44   2.0000      -0.469454       -12.7745 
  45   2.0000      -0.431726       -11.7479 
  46   2.0000      -0.415412       -11.3039 
  47   2.0000      -0.410367       -11.1667 
  48   2.0000      -0.394362       -10.7311 
  49   2.0000      -0.382134       -10.3984 
  50   2.0000      -0.373550       -10.1648 
  51   2.0000      -0.360202        -9.8016 
  52   2.0000      -0.357882        -9.7385 
  53   2.0000      -0.338538        -9.2121 
  54   2.0000      -0.332192        -9.0394 
  55   2.0000      -0.321750        -8.7553 
  56   2.0000      -0.309430        -8.4200 
  57   2.0000      -0.306682        -8.3452 
  58   2.0000      -0.301515        -8.2046 
  59   2.0000      -0.283158        -7.7051 
  60   2.0000      -0.273954        -7.4547 
  61   2.0000      -0.255069        -6.9408 
  62   2.0000      -0.238555        -6.4914 
  63   2.0000      -0.223966        -6.0944 
  64   2.0000      -0.219315        -5.9679 
  65   2.0000      -0.218336        -5.9412 
  66   2.0000      -0.214350        -5.8328 
  67   2.0000      -0.209634        -5.7044 
  68   2.0000      -0.200581        -5.4581 
  69   2.0000      -0.180119        -4.9013 
  70   2.0000      -0.162793        -4.4298 
  71   2.0000      -0.139549        -3.7973 
  72   2.0000      -0.105174        -2.8619 
  73   0.0000       0.026019         0.7080 
  74   0.0000       0.028126         0.7653 
  75   0.0000       0.051755         1.4083 
  76   0.0000       0.061263         1.6670 
  77   0.0000       0.089036         2.4228 
  78   0.0000       0.124673         3.3925 
  79   0.0000       0.126207         3.4343 
  80   0.0000       0.167202         4.5498 
  81   0.0000       0.187077         5.0906 
  82   0.0000       0.212158         5.7731 
  83   0.0000       0.272657         7.4194 
*Only the first 10 virtual orbitals were printed.

                    ********************************
                    * MULLIKEN POPULATION ANALYSIS *
                    ********************************

-----------------------
MULLIKEN ATOMIC CHARGES
-----------------------
   0 C :   -0.097826
   1 C :   -0.101557
   2 C :    0.062110
   3 C :    0.077630
   4 C :   -0.105633
   5 C :   -0.004065
   6 Cl:   -0.104167
   7 O :   -0.217896
   8 O :   -0.148100
   9 C :    0.099953
  10 C :    0.000865
  11 C :   -0.076055
  12 C :    0.002906
  13 C :   -0.077919
  14 C :   -0.091216
  15 Cl:   -0.088720
  16 Cl:   -0.080476
  17 H :    0.104384
  18 H :    0.108528
  19 H :    0.111526
  20 H :    0.261689
  21 H :    0.125713
  22 H :    0.117992
  23 H :    0.120334
Sum of atomic charges:   -0.0000000

--------------------------------
MULLIKEN REDUCED ORBITAL CHARGES
--------------------------------
  0 C s       :     3.133706  s :     3.133706
      pz      :     1.046093  p :     2.964121
      px      :     0.971476
      py      :     0.946552

  1 C s       :     3.139899  s :     3.139899
      pz      :     1.029415  p :     2.961658
      px      :     0.942627
      py      :     0.989617

  2 C s       :     3.089946  s :     3.089946
      pz      :     1.113596  p :     2.847944
      px      :     0.772340
      py      :     0.962009

  3 C s       :     3.095022  s :     3.095022
      pz      :     1.061328  p :     2.827347
      px      :     0.900321
      py      :     0.865699

  4 C s       :     3.128050  s :     3.128050
      pz      :     1.066537  p :     2.977583
      px      :     0.919394
      py      :     0.991651

  5 C s       :     3.139717  s :     3.139717
      pz      :     1.086495  p :     2.864348
      px      :     0.800187
      py      :     0.977666

  6 Cls       :     5.957581  s :     5.957581
      pz      :     3.934050  p :    11.146586
      px      :     3.290475
      py      :     3.922061

  7 O s       :     3.841883  s :     3.841883
      pz      :     1.749573  p :     4.376012
      px      :     1.155269
      py      :     1.471170

  8 O s       :     3.795357  s :     3.795357
      pz      :     1.623054  p :     4.352743
      px      :     1.303887
      py      :     1.425802

  9 C s       :     3.098667  s :     3.098667
      pz      :     0.949993  p :     2.801379
      px      :     0.999312
      py      :     0.852074

 10 C s       :     3.139526  s :     3.139526
      pz      :     0.873978  p :     2.859608
      px      :     0.990385
      py      :     0.995245

 11 C s       :     3.137055  s :     3.137055
      pz      :     0.959101  p :     2.938999
      px      :     1.010002
      py      :     0.969896

 12 C s       :     3.137328  s :     3.137328
      pz      :     0.971307  p :     2.859766
      px      :     1.017560
      py      :     0.870898

 13 C s       :     3.141665  s :     3.141665
      pz      :     1.007150  p :     2.936254
      px      :     0.974124
      py      :     0.954980

 14 C s       :     3.142646  s :     3.142646
      pz      :     0.946876  p :     2.948570
      px      :     1.014461
      py      :     0.987233

 15 Cls       :     5.958470  s :     5.958470
      pz      :     3.797031  p :    11.130250
      px      :     3.911253
      py      :     3.421966

 16 Cls       :     5.959463  s :     5.959463
      pz      :     3.425473  p :    11.121013
      px      :     3.771064
      py      :     3.924476

 17 H s       :     0.895616  s :     0.895616

 18 H s       :     0.891472  s :     0.891472

 19 H s       :     0.888474  s :     0.888474

 20 H s       :     0.738311  s :     0.738311

 21 H s       :     0.874287  s :     0.874287

 22 H s       :     0.882008  s :     0.882008

 23 H s       :     0.879666  s :     0.879666



                     *******************************
                     * LOEWDIN POPULATION ANALYSIS *
                     *******************************

----------------------
LOEWDIN ATOMIC CHARGES
----------------------
   0 C :   -0.075454
   1 C :   -0.072616
   2 C :    0.025848
   3 C :    0.049118
   4 C :   -0.093740
   5 C :   -0.009950
   6 Cl:   -0.064088
   7 O :   -0.105717
   8 O :   -0.050437
   9 C :    0.066722
  10 C :   -0.019843
  11 C :   -0.059107
  12 C :   -0.005928
  13 C :   -0.048808
  14 C :   -0.062664
  15 Cl:   -0.050351
  16 Cl:   -0.042520
  17 H :    0.062803
  18 H :    0.066596
  19 H :    0.069724
  20 H :    0.191403
  21 H :    0.079982
  22 H :    0.073146
  23 H :    0.075882

-------------------------------
LOEWDIN REDUCED ORBITAL CHARGES
-------------------------------
  0 C s       :     3.015637  s :     3.015637
      pz      :     1.048904  p :     3.059817
      px      :     1.013508
      py      :     0.997405

  1 C s       :     3.020000  s :     3.020000
      pz      :     1.031148  p :     3.052615
      px      :     1.000003
      py      :     1.021464

  2 C s       :     3.014591  s :     3.014591
      pz      :     1.111961  p :     2.959561
      px      :     0.835997
      py      :     1.011604

  3 C s       :     3.016552  s :     3.016552
      pz      :     1.059562  p :     2.934331
      px      :     0.948977
      py      :     0.925791

  4 C s       :     3.014329  s :     3.014329
      pz      :     1.070326  p :     3.079411
      px      :     0.985807
      py      :     1.023277

  5 C s       :     3.043411  s :     3.043411
      pz      :     1.083963  p :     2.966539
      px      :     0.861484
      py      :     1.021092

  6 Cls       :     5.907852  s :     5.907852
      pz      :     3.932161  p :    11.156235
      px      :     3.300852
      py      :     3.923222

  7 O s       :     3.691365  s :     3.691365
      pz      :     1.750614  p :     4.414352
      px      :     1.175149
      py      :     1.488589

  8 O s       :     3.657504  s :     3.657504
      pz      :     1.629293  p :     4.392933
      px      :     1.322461
      py      :     1.441179

  9 C s       :     3.021318  s :     3.021318
      pz      :     0.987325  p :     2.911961
      px      :     1.027716
      py      :     0.896920

 10 C s       :     3.050033  s :     3.050033
      pz      :     0.918509  p :     2.969810
      px      :     1.022048
      py      :     1.029254

 11 C s       :     3.021093  s :     3.021093
      pz      :     1.003196  p :     3.038014
      px      :     1.027167
      py      :     1.007651

 12 C s       :     3.042467  s :     3.042467
      pz      :     1.006071  p :     2.963461
      px      :     1.041423
      py      :     0.915966

 13 C s       :     3.020845  s :     3.020845
      pz      :     1.026494  p :     3.027963
      px      :     1.002590
      py      :     0.998878

 14 C s       :     3.022892  s :     3.022892
      pz      :     0.990460  p :     3.039772
      px      :     1.030202
      py      :     1.019110

 15 Cls       :     5.909226  s :     5.909226
      pz      :     3.799423  p :    11.141125
      px      :     3.911315
      py      :     3.430387

 16 Cls       :     5.911050  s :     5.911050
      pz      :     3.433527  p :    11.131470
      px      :     3.773129
      py      :     3.924815

 17 H s       :     0.937197  s :     0.937197

 18 H s       :     0.933404  s :     0.933404

 19 H s       :     0.930276  s :     0.930276

 20 H s       :     0.808597  s :     0.808597

 21 H s       :     0.920018  s :     0.920018

 22 H s       :     0.926854  s :     0.926854

 23 H s       :     0.924118  s :     0.924118



                      *****************************
                      * MAYER POPULATION ANALYSIS *
                      *****************************

  NA   - Mulliken gross atomic population
  ZA   - Total nuclear charge
  QA   - Mulliken gross atomic charge
  VA   - Mayer's total valence
  BVA  - Mayer's bonded valence
  FA   - Mayer's free valence

  ATOM       NA         ZA         QA         VA         BVA        FA
  0 C      6.0978     6.0000    -0.0978     3.9655     3.9655     0.0000
  1 C      6.1016     6.0000    -0.1016     3.9668     3.9668    -0.0000
  2 C      5.9379     6.0000     0.0621     3.9031     3.9031    -0.0000
  3 C      5.9224     6.0000     0.0776     3.9333     3.9333    -0.0000
  4 C      6.1056     6.0000    -0.1056     3.9624     3.9624    -0.0000
  5 C      6.0041     6.0000    -0.0041     3.9219     3.9219    -0.0000
  6 Cl    17.1042    17.0000    -0.1042     1.1253     1.1253    -0.0000
  7 O      8.2179     8.0000    -0.2179     2.2953     2.2953    -0.0000
  8 O      8.1481     8.0000    -0.1481     2.4052     2.4052    -0.0000
  9 C      5.9000     6.0000     0.1000     3.9165     3.9165    -0.0000
 10 C      5.9991     6.0000     0.0009     3.9228     3.9228    -0.0000
 11 C      6.0761     6.0000    -0.0761     3.9630     3.9630    -0.0000
 12 C      5.9971     6.0000     0.0029     3.9271     3.9271     0.0000
 13 C      6.0779     6.0000    -0.0779     3.9653     3.9653    -0.0000
 14 C      6.0912     6.0000    -0.0912     3.9640     3.9640    -0.0000
 15 Cl    17.0887    17.0000    -0.0887     1.1376     1.1376    -0.0000
 16 Cl    17.0805    17.0000    -0.0805     1.1423     1.1423     0.0000
 17 H      0.8956     1.0000     0.1044     0.9891     0.9891    -0.0000
 18 H      0.8915     1.0000     0.1085     0.9882     0.9882    -0.0000
 19 H      0.8885     1.0000     0.1115     0.9876     0.9876    -0.0000
 20 H      0.7383     1.0000     0.2617     0.9315     0.9315    -0.0000
 21 H      0.8743     1.0000     0.1257     0.9842     0.9842    -0.0000
 22 H      0.8820     1.0000     0.1180     0.9861     0.9861    -0.0000
 23 H      0.8797     1.0000     0.1203     0.9855     0.9855     0.0000

  Mayer bond orders larger than 0.100000
B(  0-C ,  1-C ) :   1.4291 B(  0-C ,  5-C ) :   1.3761 B(  0-C , 17-H ) :   0.9557 
B(  1-C ,  2-C ) :   1.3666 B(  1-C , 18-H ) :   0.9520 B(  2-C ,  3-C ) :   1.2672 
B(  2-C ,  8-O ) :   1.0097 B(  3-C ,  4-C ) :   1.3361 B(  3-C ,  7-O ) :   1.1435 
B(  4-C ,  5-C ) :   1.4085 B(  4-C , 19-H ) :   0.9525 B(  5-C ,  6-Cl) :   0.9853 
B(  7-O , 20-H ) :   0.8909 B(  8-O ,  9-C ) :   1.0362 B(  9-C , 10-C ) :   1.3165 
B(  9-C , 14-C ) :   1.3428 B( 10-C , 11-C ) :   1.3999 B( 10-C , 16-Cl) :   0.9940 
B( 11-C , 12-C ) :   1.3959 B( 11-C , 14-C ) :   0.1042 B( 11-C , 21-H ) :   0.9497 
B( 12-C , 13-C ) :   1.3782 B( 12-C , 15-Cl) :   0.9926 B( 13-C , 14-C ) :   1.4482 
B( 13-C , 22-H ) :   0.9526 B( 14-C , 23-H ) :   0.9489 

-------
TIMINGS
-------

Total SCF time: 0 days 0 hours 0 min 9 sec 

Total time                  ....       9.749 sec
Sum of individual times     ....       9.697 sec  ( 99.5%)

SCF preparation             ....       0.186 sec  (  1.9%)
Fock matrix formation       ....       9.400 sec  ( 96.4%)
  Startup                   ....       0.012 sec  (  0.1% of F)
  Split-RI-J                ....       2.299 sec  ( 24.5% of F)
  XC integration            ....       2.801 sec  ( 29.8% of F)
    Basis function eval.    ....       1.232 sec  ( 44.0% of XC)
    Density eval.           ....       0.508 sec  ( 18.1% of XC)
    XC-Functional eval.     ....       0.304 sec  ( 10.9% of XC)
    XC-Potential eval.      ....       0.401 sec  ( 14.3% of XC)
  CPCM terms                ....       4.209 sec  ( 44.8% of F)
Diagonalization             ....       0.000 sec  (  0.0%)
Density matrix formation    ....       0.029 sec  (  0.3%)
Total Energy calculation    ....       0.010 sec  (  0.1%)
Population analysis         ....       0.008 sec  (  0.1%)
Orbital Transformation      ....       0.006 sec  (  0.1%)
Orbital Orthonormalization  ....       0.000 sec  (  0.0%)
DIIS solution               ....       0.032 sec  (  0.3%)
SOSCF solution              ....       0.026 sec  (  0.3%)
Finished LeanSCF after   9.8 sec

Maximum memory used throughout the entire LEANSCF-calculation: 55.8 MB

-------------------------   --------------------
FINAL SINGLE POINT ENERGY     -1968.458766819714
-------------------------   --------------------

------------------------------------------------------------------------------
                         ORCA SCF GRADIENT CALCULATION
------------------------------------------------------------------------------

Nuc. rep. gradient        (SHARK) ... done (  0.0 sec)
HCore & Overlap gradient  (SHARK) ... done (  0.1 sec)
Split-RIJ-J gradient      (SHARK) ... done (  0.6 sec)
XC gradient                       ... done (  2.2 sec)
CPCM gradient                     ... done (  0.5 sec)

------------------
CARTESIAN GRADIENT
------------------

   1   C   :    0.003084621   -0.014859115   -0.002309653
   2   C   :    0.010175230   -0.004510485    0.000987678
   3   C   :    0.027026837   -0.034500676    0.008579612
   4   C   :   -0.008067971    0.017667883   -0.003286956
   5   C   :    0.011053511    0.011918458   -0.000236599
   6   C   :   -0.032544186   -0.010497002   -0.000717169
   7   Cl  :    0.055773164    0.017066108    0.002691031
   8   O   :    0.028647164    0.065608514    0.011066109
   9   O   :   -0.050499223    0.029586505   -0.028762035
  10   C   :    0.017341299    0.002297778    0.006565904
  11   C   :   -0.000600259   -0.019850381    0.020130476
  12   C   :   -0.009536972   -0.001366453   -0.007028254
  13   C   :    0.007548357    0.021877188   -0.011470886
  14   C   :    0.011281143    0.010493190    0.007553255
  15   C   :    0.004153745   -0.010474510    0.012759201
  16   Cl  :   -0.014275728   -0.046244891    0.024997362
  17   Cl  :   -0.020297813    0.014695343   -0.040763006
  18   H   :    0.009840665   -0.008243715   -0.001065332
  19   H   :   -0.005304298   -0.013561651    0.001562233
  20   H   :    0.001311772    0.011722314   -0.000063123
  21   H   :   -0.050696836   -0.036979841   -0.008170038
  22   H   :   -0.009805504   -0.006956370   -0.005735088
  23   H   :    0.004660935   -0.003208978    0.011399392
  24   H   :    0.009730347    0.008320788    0.001315888

Difference to translation invariance:
           :    0.0000000002   -0.0000000000   -0.0000000001

Difference to rotation invariance:
           :    0.0010717768   -0.0005697240   -0.0002350959

Norm of the Cartesian gradient     ...    0.1729587491
RMS gradient                       ...    0.0203833841
MAX gradient                       ...    0.0656085140

-------
TIMINGS
-------

Total SCF gradient time     ....        3.683 sec

One electron gradient       ....       0.075 sec  (  2.0%)
RI-J Coulomb gradient       ....       0.627 sec  ( 17.0%)
XC gradient                 ....       2.214 sec  ( 60.1%)
CPCM gradient               ....       0.505 sec  ( 13.7%)
   A-Matrix (El+Nuc)        ....       0.180 sec  (  4.9%)
   Potential                ....       0.325 sec  (  8.8%)

Maximum memory used throughout the entire SCFGRAD-calculation: 20.7 MB
------------------------------------------------------------------------------
                         ORCA GEOMETRY RELAXATION STEP
------------------------------------------------------------------------------

Reading the OPT-File                    .... done
Getting information on internals        .... done
Copying old internal coords+grads       .... done
Making the new internal coordinates     .... (2022 redundants) done
Validating the new internal coordinates .... (2022 redundants) done
Calculating the B-matrix                .... done
Calculating the G,G- and P matrices     .... done
Transforming gradient to internals      .... done
Projecting the internal gradient        .... done
Number of atoms                         ....  24
Number of internal coordinates          .... 118
Current Energy                          .... -1968.458766820 Eh
Current gradient norm                   ....     0.172958749 Eh/bohr
Maximum allowed component of the step   ....  0.300
Current trust radius                    ....  0.300
Evaluating the initial hessian          ....  (Almloef) done
Projecting the Hessian                  .... done
Forming the augmented Hessian           .... done
Diagonalizing the augmented Hessian     .... done
Last element of RFO vector              ....  0.941330328
Lowest eigenvalues of augmented Hessian:
 -0.055079555  0.021734484  0.024965361  0.025003437  0.025063816
Length of the computed step             ....  0.358520916
Warning: the length of the step is outside the trust region - taking restricted step instead
The input lambda is                     ....     0.019905
   iter:   5  x=    0.012273  g= 1255.771396 f(x)=     3.918230
   iter:  10  x=   -0.063118  g=    2.544511 f(x)=     0.075987
   iter:  15  x=   -0.111179  g=    0.429815 f(x)=     0.000000
The output lambda is                    ....    -0.111179 (16 iterations)
The final length of the internal step   ....  0.300000000
Converting the step to Cartesian space:
 Initial RMS(Int)=    0.0276172385
Transforming coordinates:
 Iter   0:  RMS(Cart)=    0.0860852335 RMS(Int)=    0.0277295311
 Iter   5:  RMS(Cart)=    0.0000000077 RMS(Int)=    0.0000000060
done
Storing new coordinates                 .... done

                                .--------------------.
          ----------------------|Geometry convergence|-------------------------
          Item                value                   Tolerance       Converged
          ---------------------------------------------------------------------
          RMS gradient        0.0158235301            0.0001000000      NO
          MAX gradient        0.0622014095            0.0003000000      NO
          RMS step            0.0276172385            0.0020000000      NO
          MAX step            0.1099273023            0.0040000000      NO
          ........................................................
          Max(Bonds)      0.0582      Max(Angles)    1.60
          Max(Dihed)        2.08      Max(Improp)    0.00
          ---------------------------------------------------------------------

The optimization has not yet converged - more geometry cycles are needed


    ---------------------------------------------------------------------------
                         Redundant Internal Coordinates
                            (Angstroem and degrees)

        Definition                    Value    dE/dq     Step     New-Value
    ----------------------------------------------------------------------------
     1. B(C   1,C   0)                1.3955 -0.018115  0.0128    1.4083   
     2. B(C   2,C   1)                1.3984 -0.025410  0.0189    1.4173   
     3. B(C   3,C   2)                1.3954 -0.047716  0.0367    1.4321   
     4. B(C   4,C   3)                1.3962 -0.030273  0.0227    1.4189   
     5. B(C   5,C   4)                1.3898 -0.028222  0.0202    1.4100   
     6. B(C   5,C   0)                1.3954 -0.028264  0.0201    1.4155   
     7. B(Cl  6,C   5)                1.7181 -0.058387  0.0582    1.7763   
     8. B(O   7,C   3)                1.3671 -0.035989  0.0274    1.3945   
     9. B(O   8,C   2)                1.3788 -0.048574  0.0373    1.4161   
    10. B(C   9,O   8)                1.3840 -0.034910  0.0270    1.4110   
    11. B(C  10,C   9)                1.4009 -0.033656  0.0251    1.4260   
    12. B(C  11,C  10)                1.3994 -0.018931  0.0141    1.4135   
    13. B(C  12,C  11)                1.3910 -0.028773  0.0208    1.4118   
    14. B(C  13,C  12)                1.3934 -0.029809  0.0216    1.4150   
    15. B(C  14,C   9)                1.4031 -0.026357  0.0197    1.4227   
    16. B(C  14,C  13)                1.3966 -0.014411  0.0105    1.4070   
    17. B(Cl 15,C  12)                1.7204 -0.054465  0.0546    1.7750   
    18. B(Cl 16,C  10)                1.7268 -0.047661  0.0487    1.7755   
    19. B(H  17,C   0)                1.0866 -0.012813  0.0143    1.1008   
    20. B(H  18,C   1)                1.0856 -0.014274  0.0158    1.1014   
    21. B(H  19,C   4)                1.0877 -0.011729  0.0131    1.1008   
    22. B(H  20,O   8)                2.2511  0.000360 -0.0098    2.2413   
    23. B(H  20,O   7)                0.9753 -0.062201  0.0541    1.0293   
    24. B(H  21,C  11)                1.0873 -0.013277  0.0148    1.1021   
    25. B(H  22,C  13)                1.0882 -0.012628  0.0141    1.1023   
    26. B(H  23,C  14)                1.0882 -0.012253  0.0137    1.1018   
    27. A(C   1,C   0,H  17)          119.62 -0.000862    0.15    119.77   
    28. A(C   1,C   0,C   5)          119.97  0.000182   -0.11    119.86   
    29. A(C   5,C   0,H  17)          120.41  0.000677   -0.04    120.37   
    30. A(C   0,C   1,H  18)          118.97 -0.001389    0.18    119.15   
    31. A(C   2,C   1,H  18)          121.00  0.003559   -0.43    120.56   
    32. A(C   0,C   1,C   2)          120.01 -0.002200    0.27    120.27   
    33. A(C   1,C   2,C   3)          119.13 -0.002455    0.27    119.40   
    34. A(C   1,C   2,O   8)          123.25 -0.011758    1.01    124.26   
    35. A(C   3,C   2,O   8)          117.61  0.014247   -1.29    116.32   
    36. A(C   2,C   3,C   4)          120.93  0.009141   -0.96    119.97   
    37. A(C   4,C   3,O   7)          117.40 -0.006805    0.40    117.81   
    38. A(C   2,C   3,O   7)          121.67 -0.002333    0.55    122.22   
    39. A(C   3,C   4,C   5)          119.22 -0.000789    0.21    119.43   
    40. A(C   5,C   4,H  19)          121.07 -0.000889    0.06    121.12   
    41. A(C   3,C   4,H  19)          119.71  0.001678   -0.26    119.45   
    42. A(C   0,C   5,Cl  6)          119.65  0.001243   -0.11    119.54   
    43. A(C   0,C   5,C   4)          120.44 -0.004046    0.39    120.83   
    44. A(C   4,C   5,Cl  6)          119.92  0.002803   -0.28    119.64   
    45. A(C   3,O   7,H  20)          107.10  0.016247   -1.60    105.50   
    46. A(C   2,O   8,C   9)          118.44  0.006043   -0.65    117.78   
    47. A(O   8,C   9,C  10)          118.32  0.005087   -0.55    117.77   
    48. A(C  10,C   9,C  14)          119.32  0.002785   -0.31    119.01   
    49. A(O   8,C   9,C  14)          122.34 -0.007819    0.84    123.18   
    50. A(C   9,C  10,C  11)          120.32 -0.000940    0.12    120.45   
    51. A(C  11,C  10,Cl 16)          118.37 -0.006482    0.69    119.06   
    52. A(C   9,C  10,Cl 16)          121.30  0.007417   -0.81    120.49   
    53. A(C  12,C  11,H  21)          120.24 -0.001710    0.19    120.43   
    54. A(C  10,C  11,H  21)          120.11  0.000606   -0.10    120.02   
    55. A(C  10,C  11,C  12)          119.65  0.001102   -0.09    119.55   
    56. A(C  13,C  12,Cl 15)          119.58 -0.001494    0.15    119.73   
    57. A(C  11,C  12,Cl 15)          119.83  0.001313   -0.15    119.69   
    58. A(C  11,C  12,C  13)          120.59  0.000181   -0.01    120.58   
    59. A(C  12,C  13,C  14)          119.81 -0.000311    0.02    119.83   
    60. A(C  14,C  13,H  22)          119.68 -0.000571    0.08    119.76   
    61. A(C  12,C  13,H  22)          120.52  0.000881   -0.10    120.42   
    62. A(C   9,C  14,C  13)          120.16 -0.002901    0.30    120.46   
    63. A(C  13,C  14,H  23)          118.83 -0.002124    0.30    119.12   
    64. A(C   9,C  14,H  23)          120.99  0.005002   -0.59    120.41   
    65. D(C   2,C   1,C   0,H  17)   -177.00  0.001210   -0.54   -177.54   
    66. D(H  18,C   1,C   0,H  17)      1.34  0.000106   -0.06      1.28   
    67. D(C   2,C   1,C   0,C   5)      2.28  0.000897   -0.39      1.90   
    68. D(H  18,C   1,C   0,C   5)   -179.37 -0.000207    0.09   -179.28   
    69. D(C   3,C   2,C   1,H  18)    175.57 -0.000395    0.21    175.78   
    70. D(O   8,C   2,C   1,H  18)     -3.68 -0.003624    1.47     -2.20   
    71. D(O   8,C   2,C   1,C   0)    174.63 -0.004836    1.97    176.61   
    72. D(C   3,C   2,C   1,C   0)     -6.11 -0.001607    0.71     -5.40   
    73. D(O   7,C   3,C   2,O   8)      4.94  0.005114   -2.08      2.86   
    74. D(O   7,C   3,C   2,C   1)   -174.35  0.002254   -0.91   -175.26   
    75. D(C   4,C   3,C   2,O   8)   -174.71  0.004655   -1.85   -176.56   
    76. D(C   4,C   3,C   2,C   1)      6.00  0.001795   -0.67      5.32   
    77. D(H  19,C   4,C   3,C   2)    177.87 -0.000547    0.17    178.04   
    78. D(C   5,C   4,C   3,O   7)    178.36 -0.001111    0.45    178.81   
    79. D(C   5,C   4,C   3,C   2)     -1.97 -0.000659    0.23     -1.74   
    80. D(H  19,C   4,C   3,O   7)     -1.79 -0.000999    0.40     -1.40   
    81. D(Cl  6,C   5,C   4,H  19)     -1.44 -0.000611    0.22     -1.22   
    82. D(C   0,C   5,C   4,H  19)    178.19 -0.000626    0.21    178.41   
    83. D(C   0,C   5,C   4,C   3)     -1.96 -0.000508    0.15     -1.81   
    84. D(Cl  6,C   5,C   0,H  17)      0.72 -0.000323    0.11      0.82   
    85. D(Cl  6,C   5,C   0,C   1)   -178.56  0.000004   -0.05   -178.61   
    86. D(Cl  6,C   5,C   4,C   3)    178.40 -0.000493    0.16    178.56   
    87. D(C   4,C   5,C   0,H  17)   -178.92 -0.000314    0.11   -178.80   
    88. D(C   4,C   5,C   0,C   1)      1.81  0.000013   -0.04      1.76   
    89. D(H  20,O   7,C   3,C   4)   -167.94  0.005377   -2.06   -170.01   
    90. D(H  20,O   7,C   3,C   2)     12.39  0.004881   -1.83     10.56   
    91. D(C   9,O   8,C   2,C   3)    145.46 -0.002076    0.84    146.30   
[...]

-----------------------
MULLIKEN ATOMIC CHARGES
-----------------------
   0 C :   -0.094689
   1 C :   -0.093085
   2 C :    0.047711
   3 C :    0.068491
   4 C :   -0.105159
   5 C :    0.020954
   6 Cl:   -0.138258
   7 O :   -0.187026
   8 O :   -0.123703
   9 C :    0.087907
  10 C :    0.018354
  11 C :   -0.075201
  12 C :    0.022919
  13 C :   -0.074162
  14 C :   -0.087601
  15 Cl:   -0.117399
  16 Cl:   -0.106232
  17 H :    0.109691
  18 H :    0.114506
  19 H :    0.114118
  20 H :    0.223789
  21 H :    0.130800
  22 H :    0.122072
  23 H :    0.121203
Sum of atomic charges:   -0.0000000

--------------------------------
MULLIKEN REDUCED ORBITAL CHARGES
--------------------------------
  0 C s       :     3.149633  s :     3.149633
      pz      :     1.049961  p :     2.945056
      px      :     0.972061
      py      :     0.923034

  1 C s       :     3.156306  s :     3.156306
      pz      :     1.016156  p :     2.936779
      px      :     0.926085
      py      :     0.994538

  2 C s       :     3.133635  s :     3.133635
      pz      :     1.111441  p :     2.818655
      px      :     0.777300
      py      :     0.929914

  3 C s       :     3.132833  s :     3.132833
      pz      :     1.038370  p :     2.798677
      px      :     0.851699
      py      :     0.908608

  4 C s       :     3.147601  s :     3.147601
      pz      :     1.065392  p :     2.957558
      px      :     0.904125
      py      :     0.988041

  5 C s       :     3.178143  s :     3.178143
      pz      :     1.069018  p :     2.800903
      px      :     0.798947
      py      :     0.932938

  6 Cls       :     5.967540  s :     5.967540
      pz      :     3.947068  p :    11.170717
      px      :     3.384531
      py      :     3.839118

  7 O s       :     3.879270  s :     3.879270
      pz      :     1.747598  p :     4.307756
      px      :     1.137982
      py      :     1.422175

  8 O s       :     3.839266  s :     3.839266
      pz      :     1.546584  p :     4.284437
      px      :     1.274596
      py      :     1.463256

  9 C s       :     3.134390  s :     3.134390
      pz      :     0.918461  p :     2.777703
      px      :     0.949092
      py      :     0.910150

 10 C s       :     3.170159  s :     3.170159
      pz      :     0.870565  p :     2.811488
      px      :     0.934716
      py      :     1.006207

 11 C s       :     3.154368  s :     3.154368
      pz      :     0.942556  p :     2.920833
      px      :     1.004852
      py      :     0.973425

 12 C s       :     3.171453  s :     3.171453
      pz      :     0.926698  p :     2.805628
      px      :     0.957959
      py      :     0.920971

 13 C s       :     3.157061  s :     3.157061
      pz      :     1.000888  p :     2.917101
      px      :     0.946483
      py      :     0.969730

 14 C s       :     3.154813  s :     3.154813
      pz      :     0.937172  p :     2.932788
      px      :     1.005983
      py      :     0.989633

 15 Cls       :     5.967415  s :     5.967415
      pz      :     3.716705  p :    11.149985
      px      :     3.850742
      py      :     3.582538

 16 Cls       :     5.967514  s :     5.967514
      pz      :     3.451978  p :    11.138718
      px      :     3.801200
      py      :     3.885541

 17 H s       :     0.890309  s :     0.890309

 18 H s       :     0.885494  s :     0.885494

 19 H s       :     0.885882  s :     0.885882

 20 H s       :     0.776211  s :     0.776211

 21 H s       :     0.869200  s :     0.869200

 22 H s       :     0.877928  s :     0.877928

 23 H s       :     0.878797  s :     0.878797



                     *******************************
                     * LOEWDIN POPULATION ANALYSIS *
                     *******************************

----------------------
LOEWDIN ATOMIC CHARGES
----------------------
   0 C :   -0.071988
   1 C :   -0.059836
   2 C :    0.019543
   3 C :    0.046372
   4 C :   -0.089649
   5 C :    0.019427
   6 Cl:   -0.105897
   7 O :   -0.102598
   8 O :   -0.041484
   9 C :    0.061484
  10 C :    0.001285
  11 C :   -0.054137
  12 C :    0.015708
  13 C :   -0.043338
  14 C :   -0.059505
  15 Cl:   -0.085391
  16 Cl:   -0.074030
  17 H :    0.068143
  18 H :    0.072256
  19 H :    0.072467
  20 H :    0.170147
  21 H :    0.085446
  22 H :    0.077623
  23 H :    0.077952

-------------------------------
LOEWDIN REDUCED ORBITAL CHARGES
-------------------------------
  0 C s       :     3.032363  s :     3.032363
      pz      :     1.052616  p :     3.039625
      px      :     1.007664
      py      :     0.979345

  1 C s       :     3.035052  s :     3.035052
      pz      :     1.017488  p :     3.024784
      px      :     0.984989
      py      :     1.022307

  2 C s       :     3.056785  s :     3.056785
      pz      :     1.111248  p :     2.923672
      px      :     0.833509
      py      :     0.978915

  3 C s       :     3.053764  s :     3.053764
      pz      :     1.037236  p :     2.899863
      px      :     0.902057
      py      :     0.960571

  4 C s       :     3.033391  s :     3.033391
      pz      :     1.068404  p :     3.056259
      px      :     0.970156
      py      :     1.017699

  5 C s       :     3.082888  s :     3.082888
      pz      :     1.066962  p :     2.897685
      px      :     0.851919
      py      :     0.978805

  6 Cls       :     5.930770  s :     5.930770
      pz      :     3.945722  p :    11.175127
      px      :     3.389072
      py      :     3.840332

  7 O s       :     3.755907  s :     3.755907
      pz      :     1.748318  p :     4.346690
      px      :     1.164334
      py      :     1.434038

  8 O s       :     3.723756  s :     3.723756
      pz      :     1.554647  p :     4.317727
      px      :     1.289540
      py      :     1.473540

  9 C s       :     3.055656  s :     3.055656
      pz      :     0.955301  p :     2.882860
      px      :     0.988714
      py      :     0.938845

 10 C s       :     3.081430  s :     3.081430
      pz      :     0.909809  p :     2.917285
      px      :     0.976893
      py      :     1.030583

 11 C s       :     3.037548  s :     3.037548
      pz      :     0.988365  p :     3.016590
      px      :     1.026027
      py      :     1.002197

 12 C s       :     3.078289  s :     3.078289
      pz      :     0.962798  p :     2.906003
      px      :     0.995157
      py      :     0.948047

 13 C s       :     3.036492  s :     3.036492
      pz      :     1.020432  p :     3.006846
      px      :     0.989471
      py      :     0.996943

 14 C s       :     3.036448  s :     3.036448
      pz      :     0.981578  p :     3.023057
      px      :     1.027694
      py      :     1.013785

 15 Cls       :     5.929689  s :     5.929689
      pz      :     3.718737  p :    11.155702
      px      :     3.851668
      py      :     3.585297

 16 Cls       :     5.929443  s :     5.929443
      pz      :     3.456425  p :    11.144587
      px      :     3.802559
      py      :     3.885603

 17 H s       :     0.931857  s :     0.931857

 18 H s       :     0.927744  s :     0.927744

 19 H s       :     0.927533  s :     0.927533

 20 H s       :     0.829853  s :     0.829853

 21 H s       :     0.914554  s :     0.914554

 22 H s       :     0.922377  s :     0.922377

 23 H s       :     0.922048  s :     0.922048



                      *****************************
                      * MAYER POPULATION ANALYSIS *
                      *****************************

  NA   - Mulliken gross atomic population
  ZA   - Total nuclear charge
  QA   - Mulliken gross atomic charge
  VA   - Mayer's total valence
  BVA  - Mayer's bonded valence
  FA   - Mayer's free valence

  ATOM       NA         ZA         QA         VA         BVA        FA
  0 C      6.0947     6.0000    -0.0947     3.9572     3.9572    -0.0000
  1 C      6.0931     6.0000    -0.0931     3.9609     3.9609    -0.0000
  2 C      5.9523     6.0000     0.0477     3.8890     3.8890    -0.0000
  3 C      5.9315     6.0000     0.0685     3.9334     3.9334    -0.0000
  4 C      6.1052     6.0000    -0.1052     3.9547     3.9547    -0.0000
  5 C      5.9790     6.0000     0.0210     3.9009     3.9009    -0.0000
  6 Cl    17.1383    17.0000    -0.1383     1.0846     1.0846     0.0000
  7 O      8.1870     8.0000    -0.1870     2.3388     2.3388     0.0000
  8 O      8.1237     8.0000    -0.1237     2.4266     2.4266     0.0000
  9 C      5.9121     6.0000     0.0879     3.9102     3.9102     0.0000
 10 C      5.9816     6.0000     0.0184     3.9053     3.9053    -0.0000
 11 C      6.0752     6.0000    -0.0752     3.9562     3.9562     0.0000
 12 C      5.9771     6.0000     0.0229     3.9068     3.9068     0.0000
 13 C      6.0742     6.0000    -0.0742     3.9589     3.9589     0.0000
 14 C      6.0876     6.0000    -0.0876     3.9574     3.9574    -0.0000
 15 Cl    17.1174    17.0000    -0.1174     1.1010     1.1010    -0.0000
 16 Cl    17.1062    17.0000    -0.1062     1.1103     1.1103    -0.0000
 17 H      0.8903     1.0000     0.1097     0.9880     0.9880    -0.0000
 18 H      0.8855     1.0000     0.1145     0.9869     0.9869    -0.0000
 19 H      0.8859     1.0000     0.1141     0.9870     0.9870    -0.0000
 20 H      0.7762     1.0000     0.2238     0.9499     0.9499    -0.0000
 21 H      0.8692     1.0000     0.1308     0.9829     0.9829     0.0000
 22 H      0.8779     1.0000     0.1221     0.9851     0.9851    -0.0000
 23 H      0.8788     1.0000     0.1212     0.9853     0.9853     0.0000

  Mayer bond orders larger than 0.100000
B(  0-C ,  1-C ) :   1.3953 B(  0-C ,  5-C ) :   1.3901 B(  0-C , 17-H ) :   0.9530 
B(  1-C ,  2-C ) :   1.4147 B(  1-C , 18-H ) :   0.9499 B(  2-C ,  3-C ) :   1.2483 
B(  2-C ,  8-O ) :   0.9631 B(  3-C ,  4-C ) :   1.3245 B(  3-C ,  7-O ) :   1.1871 
B(  4-C ,  5-C ) :   1.4086 B(  4-C , 19-H ) :   0.9511 B(  5-C ,  6-Cl) :   0.9516 
B(  7-O , 20-H ) :   0.8286 B(  8-O ,  9-C ) :   1.0240 B(  9-C , 10-C ) :   1.3083 
B(  9-C , 14-C ) :   1.3535 B( 10-C , 11-C ) :   1.4180 B( 10-C , 16-Cl) :   0.9659 
B( 11-C , 12-C ) :   1.3820 B( 11-C , 14-C ) :   0.1006 B( 11-C , 21-H ) :   0.9468 
B( 12-C , 13-C ) :   1.3893 B( 12-C , 15-Cl) :   0.9629 B( 13-C , 14-C ) :   1.4337 
B( 13-C , 22-H ) :   0.9500 B( 14-C , 23-H ) :   0.9429 

-------
TIMINGS
-------

Total SCF time: 0 days 0 hours 0 min 2 sec 

Total time                  ....       2.952 sec
Sum of individual times     ....       2.912 sec  ( 98.6%)

SCF preparation             ....       0.199 sec  (  6.7%)
Fock matrix formation       ....       2.658 sec  ( 90.0%)
  Startup                   ....       0.005 sec  (  0.2% of F)
  Split-RI-J                ....       0.641 sec  ( 24.1% of F)
  XC integration            ....       0.803 sec  ( 30.2% of F)
    Basis function eval.    ....       0.355 sec  ( 44.2% of XC)
    Density eval.           ....       0.131 sec  ( 16.3% of XC)
    XC-Functional eval.     ....       0.101 sec  ( 12.6% of XC)
    XC-Potential eval.      ....       0.128 sec  ( 15.9% of XC)
  CPCM terms                ....       1.188 sec  ( 44.7% of F)
Diagonalization             ....       0.000 sec  (  0.0%)
Density matrix formation    ....       0.007 sec  (  0.2%)
Total Energy calculation    ....       0.006 sec  (  0.2%)
Population analysis         ....       0.024 sec  (  0.8%)
Orbital Transformation      ....       0.003 sec  (  0.1%)
Orbital Orthonormalization  ....       0.000 sec  (  0.0%)
DIIS solution               ....       0.004 sec  (  0.1%)
SOSCF solution              ....       0.011 sec  (  0.4%)
Finished LeanSCF after   3.0 sec

Maximum memory used throughout the entire LEANSCF-calculation: 59.2 MB

-------------------------   --------------------
FINAL SINGLE POINT ENERGY     -1968.501332973171
-------------------------   --------------------

                                *** OPTIMIZATION RUN DONE ***


------------------------------------------------------------------------------
                              ORCA PROPERTY CALCULATIONS
------------------------------------------------------------------------------

GBWName                                 ... Triclosan\Triclosan_PBE_STO-3G\Triclosan_PBE_STO-3G.orcainp.gbw
Number of atoms                         ...     24
Number of basis functions               ...    104
Max core memory                         ...   1024 MB

Electric properties:
Dipole moment                           ... YES
Quadrupole moment                       ...  NO
Static polarizability (Dipole/Dipole)   ...  NO
Static polarizability (Dipole/Quad.)    ...  NO
Static polarizability (Quad./Quad.)     ...  NO
Static polarizability (Velocity)        ...  NO

Atomic electric properties:
Dipole moment                           ...  NO
Quadrupole moment                       ...  NO
Static polarizability                   ...  NO

Choice of electric origin               ... Center of mass
Position of electric origin             ...     4.717951     3.739773    -1.068278

General magnetic properties:
Magnetizability                         ...  NO

EPR properties:
g-Tensor (aka g-matrix)                 ...  NO
Zero-Field splitting spin-orbit         ...  NO
Zero-field splitting spin-spin          ...  NO
Hyperfine couplings                     ...  NO (   0 nuclei)
Quadrupole couplings                    ...  NO (   0 nuclei)
Contact density                         ...  NO (   0 nuclei)

NMR properties:
Chemical shifts                         ...  NO (   0 nuclei)
Spin-rotation constants                 ...  NO (   0 nuclei)
Spin-spin couplings                     ...  NO (   0 nuclei,    0 pairs)

Choice of magnetic origin               ... GIAO
Position of magnetic origin             ...     0.000000     0.000000     0.000000

Properties with geometric perturbations:
SCF Hessian                             ...  NO
IR spectrum                             ...  NO
VCD spectrum                            ...  NO
X-ray spectroscopy properties:
SCF XES/XAS/RIXS spectra                ...  NO


-------------
DIPOLE MOMENT
-------------

Method             : SCF
Type of density    : Electron Density
Multiplicity       :   1
Irrep              :   0
Energy             : -1968.5013329731707472 Eh
Relativity type    : 
Basis              : AO
                                X                 Y                 Z
Electronic contribution:      5.385191401       2.374982108       0.819905375
Nuclear contribution   :     -5.162511855      -1.843919981      -1.144817846
                        -----------------------------------------
Total Dipole Moment    :      0.222679546       0.531062127      -0.324912471
                        -----------------------------------------
Magnitude (a.u.)       :      0.661196852
Magnitude (Debye)      :      1.680628836



--------------------
Rotational spectrum 
--------------------
 
Rotational constants in cm-1:             0.021407             0.004785             0.004131 
Rotational constants in MHz :           641.756848           143.444432           123.850291 

Dipole components along the rotational axes: 
x,y,z [a.u.] :    -0.566214    -0.337684     0.050524 
x,y,z [Debye]:    -1.439201    -0.858325     0.128421 

 

Dipole moment calculation done in   0.0 sec 

Maximum memory used throughout the entire PROP-calculation: 8.7 MB

--------------------------------
SUGGESTED CITATIONS FOR THIS RUN
--------------------------------

Below you find a list of papers that are relevant to this ORCA run
We neither can nor want to force you to cite these papers, but we appreciate if you do
You receive ORCA, which is the product of decades of hard work by many enthusiastic individuals, for free
The only thing we kindly ask in return is that you cite our papers,
We deeply appreciate it, if you show your appreciation for ORCA by not just citing the generic ORCA reference.

Please note that relegating all ORCA citations to the supporting information does *not* help us.
SI sections are not indexed - citations you put there will not count into any citation statistics
But we need these citations in order to attract the funding resources that allow us to do what we are doing

Therefore, if you are a happy ORCA user, please consider citing a few of the papers listed below in the main body of your paper

In addition to the list printed below, the program has created the file Triclosan\Triclosan_PBE_STO-3G\Triclosan_PBE_STO-3G.orcainp.bibtex that contains the list in bibtex format
You can import this file easily into all common literature databanks and citation aid programs


List of essential papers. We consider these as the minimum necessary citations

  1. Neese,F.
     Software update: the ORCA program system, version 5.0
     WIRES Comput. Molec. Sci., 2022 12(1)e1606
     doi.org/10.1002/wcms.1606

List of papers to cite with high priority. The work reported in these papers was absolutely
necessary for this run to complete.
Our perspective: the developers of density functionals and basis sets usually get cited in chemistry papers
Good! But without the algorithms to do something with them, the functionals or basis sets would not do anything.
Hence, in our opinion, the algorithm design and method developments papers are equally worthy of getting cited

  1. Neese,F.
     An improvement of the resolution of the identity approximation for the formation of the Coulomb matrix
     J. Comp. Chem., 2003 24(14)1740-1747
     doi.org/10.1002/jcc.10318
  2. Garcia-Rates,M.; Neese,F.
     Effect of the Solute Cavity on the Solvation Energy and its Derivatives within the Framework of the Gaussian Charge Scheme
     J. Comput. Chem., 2020 41 922-939
     doi.org/10.1002/jcc.26139
  3. Neese,F.
     The SHARK Integral Generation and Digestion System
     J. Comp. Chem., 2022  1-16
     doi.org/10.1002/jcc.26942

List of suggested additional citations. These are papers that are important in the 'surrounding' of 
of this run, or papers that preceded the highly important papers. If you like your results we are grateful for a citation.

  1. Neese,F.
     The ORCA program system
     WIRES Comput. Molec. Sci., 2012 2(1)73-78
     doi.org/10.1002/wcms.81
  2. Neese,F.
     Software update: the ORCA program system, version 4.0
     WIRES Comput. Molec. Sci., 2018 8(1)1-6
     doi.org/10.1002/wcms.1327
  3. Neese,F.; Wennmohs,F.; Becker,U.; Riplinger,C.
     The ORCA quantum chemistry program package
     J. Chem. Phys., 2020 152 Art. No. L224108
     doi.org/10.1063/5.0004608

List of optional additional citations

  1. Neese,F.
     Approximate second-order SCF convergence for spin unrestricted wavefunctions
     Chem. Phys. Lett., 2000 325(1-3)93-98
     doi.org/10.1016/s0009-2614(00)00662-x

Timings for individual modules:

Sum of individual times          ...      147.405 sec (=   2.457 min)
Startup calculation              ...        9.420 sec (=   0.157 min)   6.4 %
SCF iterations                   ...       89.376 sec (=   1.490 min)  60.6 %
Property calculations            ...        0.073 sec (=   0.001 min)   0.0 %
SCF Gradient evaluation          ...       48.429 sec (=   0.807 min)  32.9 %
Geometry relaxation              ...        0.107 sec (=   0.002 min)   0.1 %
                             ****ORCA TERMINATED NORMALLY****
TOTAL RUN TIME: 0 days 0 hours 2 minutes 28 seconds 710 msec
