
                                 *****************
                                 * O   R   C   A *
                                 *****************

                                            #,                                       
                                            ###                                      
                                            ####                                     
                                            #####                                    
                                            ######                                   
                                           ########,                                 
                                     ,,################,,,,,                         
                               ,,#################################,,                 
                          ,,##########################################,,             
                       ,#########################################, ''#####,          
                    ,#############################################,,   '####,        
                  ,##################################################,,,,####,       
                ,###########''''           ''''###############################       
              ,#####''   ,,,,##########,,,,          '''####'''          '####       
            ,##' ,,,,###########################,,,                        '##       
           ' ,,###''''                  '''############,,,                           
         ,,##''                                '''############,,,,        ,,,,,,###''
      ,#''                                            '''#######################'''  
     '                                                          ''''####''''         
             ,#######,   #######,   ,#######,      ##                                
            ,#'     '#,  ##    ##  ,#'     '#,    #''#        ,####,   ,####,        
            ##       ##  ##   ,#'  ##            #'  '#       #'       #'  '#        
            ##       ##  #######   ##           ,######,      #####,   #    #        
            '#,     ,#'  ##    ##  '#,     ,#' ,#      #,     #,   #   #,  ,#        
             '#######'   ##     ##  '#######'  #'      '#     '####' # '####'        



                #########################################################
                #                        -***-                          #
                #          Department of theory and spectroscopy        #
                #                                                       #
                #                      Frank Neese                      #
                #                                                       #
                #     Directorship, Architecture, Infrastructure        #
                #                    SHARK, DRIVERS                     #
                #        Core code/Algorithms in most modules           #
                #                                                       #
                #        Max Planck Institute fuer Kohlenforschung      #
                #                Kaiser Wilhelm Platz 1                 #
                #                 D-45470 Muelheim/Ruhr                 #
                #                      Germany                          #
                #                                                       #
                #                  All rights reserved                  #
                #                        -***-                          #
                #########################################################


                         Program Version 6.0.0  -   RELEASE   -


 With contributions from (in alphabetic order):
   Daniel Aravena         : Magnetic Suceptibility
   Michael Atanasov       : Ab Initio Ligand Field Theory (pilot matlab implementation)
   Alexander A. Auer      : GIAO ZORA, VPT2 properties, NMR spectrum
   Ute Becker             : All parallelization in ORCA, NUMFREQ, NUMCALC
   Giovanni Bistoni       : ED, misc. LED, open-shell LED, HFLD
   Martin Brehm           : Molecular dynamics
   Dmytro Bykov           : pre 5.0 version of the SCF Hessian
   Marcos Casanova-Páez   : Triplet and SCS-CIS(D). UHF-(DLPNO)-IP/EA/STEOM-CCSD. UHF-CVS-IP/STEOM-CCSD
   Vijay G. Chilkuri      : MRCI spin determinant printing, contributions to CSF-ICE
   Pauline Colinet        : FMM embedding
   Dipayan Datta          : RHF DLPNO-CCSD density
   Achintya Kumar Dutta   : EOM-CC, STEOM-CC
   Nicolas Foglia         : Exact transition moments, OPA infrastructure, MCD improvements
   Dmitry Ganyushin       : Spin-Orbit,Spin-Spin,Magnetic field MRCI
   Miquel Garcia          : C-PCM and meta-GGA Hessian, CCSD/C-PCM, Gaussian charge scheme
   Tiago L. C. Gouveia    : GS-ROHF, GS-ROCIS
   Yang Guo               : DLPNO-NEVPT2, F12-NEVPT2, CIM, IAO-localization
   Andreas Hansen         : Spin unrestricted coupled pair/coupled cluster methods
   Ingolf Harden          : AUTO-CI MPn and infrastructure 
   Benjamin Helmich-Paris : MC-RPA, TRAH-(SCF,CASSCF), AVAS, COSX integrals, SCF dyn. polar.
   Lee Huntington         : MR-EOM, pCC
   Robert Izsak           : Overlap fitted RIJCOSX, COSX-SCS-MP3, EOM
   Riya Kayal             : Wick's Theorem for AUTO-CI, AUTO-CI UHF-CCSDT
   Emily Kempfer          : AUTO-CI, RHF CISDT and CCSDT
   Christian Kollmar      : KDIIS, OOCD, Brueckner-CCSD(T), CCSD density, CASPT2, CASPT2-K, improved NEVPT2
   Axel Koslowski         : Symmetry handling
   Simone Kossmann        : Meta GGA functionals, TD-DFT gradient, OOMP2, (MP2 Hessian; deprecated post 5.0)
   Lucas Lang             : DCDCAS
   Marvin Lechner         : AUTO-CI (C++ implementation), FIC-MRCC
   Spencer Leger          : CASSCF response
   Dagmar Lenk            : GEPOL surface, SMD, ORCA-2-JSON
   Dimitrios Liakos       : Extrapolation schemes; Compound Job, initial MDCI parallelization
   Dimitrios Manganas     : Further ROCIS development; embedding schemes. LFT, Crystal Embedding
   Dimitrios Pantazis     : SARC Basis sets
   Anastasios Papadopoulos: AUTO-CI, single reference methods and gradients
   Taras Petrenko         : pre 6.0 DFT Hessian and TD-DFT gradient, (ASA, deprecated), ECA, 1-Electron XAS/XES, NRVS
   Peter Pinski           : DLPNO-MP2, DLPNO-MP2 Gradient
   Christoph Reimann      : Effective Core Potentials
   Marius Retegan         : Local ZFS, SOC
   Christoph Riplinger    : Optimizer, TS searches, QM/MM, DLPNO-CCSD(T), (RO)-DLPNO pert. Triples
   Michael Roemelt        : Original ROCIS implementation
   Masaaki Saitow         : Open-shell DLPNO-CCSD energy and density
   Barbara Sandhoefer     : DKH picture change effects
   Kantharuban Sivalingam : CASSCF convergence/infrastructure, NEVPT2 and variants, FIC-MRCI
   Bernardo de Souza      : ESD, SOC TD-DFT
   Georgi Stoychev        : AutoAux, RI-MP2 NMR, DLPNO-MP2 response, X2C
   Van Anh Tran           : RI-MP2 g-tensors
   Willem Van den Heuvel  : Paramagnetic NMR
   Zikuan Wang            : NOTCH, Electric field optimization 
   Frank Wennmohs         : Technical directorship and infrastructure
   Hang Xu                : AUTO-CI-Response properties 


 We gratefully acknowledge several colleagues who have allowed us to
 interface, adapt or use parts of their codes:
   Stefan Grimme, W. Hujo, H. Kruse, P. Pracht,  : VdW corrections, initial TS optimization,
                  C. Bannwarth, S. Ehlert,         DFT functionals, gCP, sTDA/sTD-DF
                  L. Wittmann, M. Mueller
   Ed Valeev, F. Pavosevic, A. Kumar             : LibInt (2-el integral package), F12 methods
   Garnet Chan, S. Sharma, J. Yang, R. Olivares  : DMRG
   Ulf Ekstrom                                   : XCFun DFT Library
   Mihaly Kallay                                 : mrcc  (arbitrary order and MRCC methods)
   Frank Weinhold                                : gennbo (NPA and NBO analysis)
   Simon Mueller                                 : openCOSMO-RS
   Christopher J. Cramer and Donald G. Truhlar   : smd solvation model
   Lars Goerigk                                  : TD-DFT with DH, B97 family of functionals
   V. Asgeirsson, H. Jonsson                     : NEB implementation
   FAccTs GmbH                                   : IRC, NEB, NEB-TS, DLPNO-Multilevel, CI-OPT
                                                   MM, QMMM, 2- and 3-layer-ONIOM, Crystal-QMMM,
                                                   LR-CPCM, SF, NACMEs, symmetry and pop. for TD-DFT,
                                                   nearIR, NL-DFT gradient (VV10), updates on ESD,
                                                   ML-optimized integration grids, MBIS, APM,
                                                   GOAT, DOCKER, SOLVATOR, interface openCOSMO-RS
   S Lehtola, MJT Oliveira, MAL Marques          : LibXC Library
   Liviu Ungur et al                             : ANISO software


 Your calculation uses the libint2 library for the computation of 2-el integrals
 For citations please refer to: http://libint.valeyev.net

 Your ORCA version has been built with support for libXC version: 6.2.2
 For citations please refer to: https://libxc.gitlab.io

 This ORCA versions uses:
   CBLAS   interface :  Fast vector & matrix operations
   LAPACKE interface :  Fast linear algebra routines
   Shared memory     :  Shared parallel matrices


Warning: RI is on but no J-basis has been assigned. Assigning Def2/J (nothing to worry about!)
================================================================================

----- Orbital basis set information -----
Your calculation utilizes the basis: STO-3G
   H-Ne       : W. J. Hehre, R. F. Stewart and J. A. Pople, J. Chem. Phys. 2657 (1969).
   Na-Ar      : W. J. Hehre, R. Ditchfield, R. F. Stewart and J. A. Pople, J. Chem. Phys. 2769 (1970).
   K,Ca,Ga-Kr : W. J. Pietro, B. A. Levy, W. J. Hehre and R. F. Stewart, J. Am. Chem. Soc. 19, 2225 (1980).
   Sc-Zn,Y-Cd : W. J. Pietro and W. J. Hehre, J. Comp. Chem. 4, 241 (1983).

----- AuxJ basis set information -----
Your calculation utilizes the auxiliary basis: def2/J
   F. Weigend, Phys. Chem. Chem. Phys. 8, 1057 (2006).

================================================================================
                                        WARNINGS
                       Please study these warnings very carefully!
================================================================================

WARNING: Old DensityContainer found on disk!
         Will remove this file - 
         If you want to keep old densities, please start your calculation with a different basename. 

INFO   : Checking CIS options ...

WARNING: CIS/ROCIS methods need fully converged wavefunctions
  ===> : Setting SCFConvForced true
         You can overwrite this default with %scf ConvForced false 


================================================================================
                                       INPUT FILE
================================================================================
NAME = Diclofenac\Diclofenac_B3LYP_STO-3G\Diclofenac_B3LYP_STO-3G.orcainp.xyz
|  1> # ORCA xyz input file 
|  2> # 
|  3> !B3LYP STO-3G CPCM(WATER) LARGEPRINT 
|  4> %tddft
|  5>     NRoots 30
|  6>     MaxDim 5
|  7> end
|  8> * xyz 0 1
|  9>   O           2.00798592951522     -0.41512231730422      0.12116186085562
| 10>   C           2.65974529908328     -1.70108097647372      0.16964933214235
| 11>   O           2.43062830544208     -2.52108973827636      1.07866504373242
| 12>   C           3.64588292368528     -1.80639590065148     -1.04818761065554
| 13>   C           4.99316535195925     -1.11139876249220     -0.75130684369665
| 14>   C           6.15981456819165     -1.88561157265319     -0.57856172033721
| 15>   C           7.40999307794834     -1.28473997041964     -0.33537806114376
| 16>   C           7.49802072736785      0.11903517686630     -0.24634130878258
| 17>   C           6.35064178640400      0.91450683571758     -0.39521432288341
| 18>   C           5.08497948369422      0.31851197972700     -0.65677677770052
| 19>   N           3.87557633198320      1.08981459115956     -0.78241364924690
| 20>   C           3.85518026596371      2.50716206570178     -0.92484155554990
| 21>   C           4.55298118679875      3.21398754397141     -1.96393162841236
| 22>   Cl          5.52248635908052      2.28456445741787     -3.18391125016279
| 23>   C           4.47940865865204      4.61150927740157     -2.12214760259229
| 24>   C           3.66253052922586      5.37317123328651     -1.26302220176449
| 25>   C           2.92120510375150      4.73101203355060     -0.25147296587502
| 26>   C           3.02965215173998      3.33695198904521     -0.09203410290315
| 27>   Cl          2.08357043612809      2.55685676124151      1.24781698111066
| 28>   H           1.51222512917164     -0.32214565428118      1.01086226319639
| 29>   H           3.15462346476622     -1.34034172120280     -1.92286943236519
| 30>   H           3.81673575877774     -2.87539980896202     -1.25784438654439
| 31>   H           6.08351978436176     -2.97963528177605     -0.65124463372424
| 32>   H           8.30617977472952     -1.90675105290527     -0.21436455622559
| 33>   H           8.46563988010583      0.59945613854205     -0.04507475259603
| 34>   H           6.41801845565513      2.00467576112494     -0.29508842793953
| 35>   H           3.00365059208987      0.60961057670037     -0.34732044314423
| 36>   H           5.04256541239079      5.09240162579339     -2.93375384652172
| 37>   H           3.59483482641841      6.46182578551415     -1.38906015110021
| 38>   H           2.27248844491817      5.30551892463628      0.42393675083025
| 39> *
| 40> 
| 41>                          ****END OF INPUT****
================================================================================

                       ****************************
                       * Single Point Calculation *
                       ****************************

---------------------------------
CARTESIAN COORDINATES (ANGSTROEM)
---------------------------------
  O      2.007986   -0.415122    0.121162
  C      2.659745   -1.701081    0.169649
  O      2.430628   -2.521090    1.078665
  C      3.645883   -1.806396   -1.048188
  C      4.993165   -1.111399   -0.751307
  C      6.159815   -1.885612   -0.578562
  C      7.409993   -1.284740   -0.335378
  C      7.498021    0.119035   -0.246341
  C      6.350642    0.914507   -0.395214
  C      5.084979    0.318512   -0.656777
  N      3.875576    1.089815   -0.782414
  C      3.855180    2.507162   -0.924842
  C      4.552981    3.213988   -1.963932
  Cl     5.522486    2.284564   -3.183911
  C      4.479409    4.611509   -2.122148
  C      3.662531    5.373171   -1.263022
  C      2.921205    4.731012   -0.251473
  C      3.029652    3.336952   -0.092034
  Cl     2.083570    2.556857    1.247817
  H      1.512225   -0.322146    1.010862
  H      3.154623   -1.340342   -1.922869
  H      3.816736   -2.875400   -1.257844
  H      6.083520   -2.979635   -0.651245
  H      8.306180   -1.906751   -0.214365
  H      8.465640    0.599456   -0.045075
  H      6.418018    2.004676   -0.295088
  H      3.003651    0.609611   -0.347320
  H      5.042565    5.092402   -2.933754
  H      3.594835    6.461826   -1.389060
  H      2.272488    5.305519    0.423937

----------------------------
CARTESIAN COORDINATES (A.U.)
----------------------------
  NO LB      ZA    FRAG     MASS         X           Y           Z
   0 O     8.0000    0    15.999    3.794543   -0.784467    0.228963
   1 C     6.0000    0    12.011    5.026190   -3.214577    0.320591
   2 O     8.0000    0    15.999    4.593222   -4.764169    2.038382
   3 C     6.0000    0    12.011    6.889720   -3.413594   -1.980788
   4 C     6.0000    0    12.011    9.435715   -2.100239   -1.419764
   5 C     6.0000    0    12.011   11.640363   -3.563289   -1.093323
   6 C     6.0000    0    12.011   14.002858   -2.427807   -0.633773
   7 C     6.0000    0    12.011   14.169206    0.224944   -0.465518
   8 C     6.0000    0    12.011   12.000974    1.728167   -0.746847
   9 C     6.0000    0    12.011    9.609219    0.601900   -1.241128
  10 N     7.0000    0    14.007    7.323778    2.059451   -1.478548
  11 C     6.0000    0    12.011    7.285235    4.737850   -1.747697
  12 C     6.0000    0    12.011    8.603888    6.073556   -3.711293
  13 Cl   17.0000    0    35.453   10.435987    4.317201   -6.016720
  14 C     6.0000    0    12.011    8.464856    8.714490   -4.010278
  15 C     6.0000    0    12.011    6.921180   10.153822   -2.386766
  16 C     6.0000    0    12.011    5.520278    8.940317   -0.475215
  17 C     6.0000    0    12.011    5.725213    6.305925   -0.173919
  18 Cl   17.0000    0    35.453    3.937378    4.831759    2.358032
  19 H     1.0000    0     1.008    2.857691   -0.608767    1.910253
  20 H     1.0000    0     1.008    5.961374   -2.532879   -3.633697
  21 H     1.0000    0     1.008    7.212585   -5.433718   -2.376981
  22 H     1.0000    0     1.008   11.496186   -5.630695   -1.230674
  23 H     1.0000    0     1.008   15.696405   -3.603237   -0.405090
  24 H     1.0000    0     1.008   15.997741    1.132808   -0.085179
  25 H     1.0000    0     1.008   12.128297    3.788288   -0.557636
  26 H     1.0000    0     1.008    5.676077    1.151997   -0.656341
  27 H     1.0000    0     1.008    9.529068    9.623244   -5.543991
  28 H     1.0000    0     1.008    6.793253   12.211081   -2.624943
  29 H     1.0000    0     1.008    4.294381   10.025978    0.801124

--------------------------------
INTERNAL COORDINATES (ANGSTROEM)
--------------------------------
 O      0   0   0     0.000000000000     0.00000000     0.00000000
 C      1   0   0     1.442508573210     0.00000000     0.00000000
 O      2   1   0     1.245479237132   121.89414509     0.00000000
 C      2   1   3     1.570568517179   108.50621280   181.01617574
 C      4   2   1     1.544774790504   111.61842834    82.34091625
 C      5   4   2     1.410785861425   119.85868893   110.14406738
 C      6   5   4     1.408236940549   121.40761681   178.61574877
 C      7   6   5     1.409347747886   119.42971701     0.76478486
 C      8   7   6     1.404071496944   120.43541723     0.14764013
 C      9   8   7     1.423209700163   120.59418421   359.11228543
 N     10   9   8     1.439912610287   122.59216163   178.34162671
 C     11  10   9     1.424631731920   123.61904836    12.95017025
 C     12  11  10     1.437440976656   123.67836453    55.92182995
 Cl    13  12  11     1.814419419645   119.57449343     0.12806478
 C     13  12  11     1.408372183336   122.94164242   177.40494374
 C     15  13  12     1.409083130168   119.87855171   358.06554026
 C     16  15  13     1.408958367337   119.76175884   359.86704183
 C     17  16  15     1.407332555201   119.48940385     1.43796273
 Cl    18  17  16     1.816265427846   117.96225196   178.69754380
 H      1   2   3     1.022736641052   105.71303101     8.96199500
 H      4   2   1     1.106169355654   107.82074819   320.83656315
 H      4   2   1     1.102685816957   108.04262279   203.06993941
 H      6   5   4     1.099086700884   118.73451937   359.48881214
 H      7   6   5     1.097584917259   120.13891934   180.62839251
 H      8   7   6     1.098908254497   120.13373094   179.27369196
 H      9   8   7     1.096828654039   120.21386845   178.14511561
 H     11  10   9     1.086350076811   113.72868057   217.91273637
 H     15  13  12     1.098684520328   119.37579786   179.61295921
 H     16  15  13     1.098015030379   120.11150893   180.58706085
 H     17  16  15     1.098667263903   120.91059881   180.46624264

---------------------------
INTERNAL COORDINATES (A.U.)
---------------------------
 O      0   0   0     0.000000000000     0.00000000     0.00000000
 C      1   0   0     2.725946149201     0.00000000     0.00000000
 O      2   1   0     2.353614663664   121.89414509     0.00000000
 C      2   1   3     2.967944372027   108.50621280   181.01617574
 C      4   2   1     2.919201292637   111.61842834    82.34091625
 C      5   4   2     2.665998911702   119.85868893   110.14406738
 C      6   5   4     2.661182149309   121.40761681   178.61574877
 C      7   6   5     2.663281270963   119.42971701     0.76478486
 C      8   7   6     2.653310601669   120.43541723     0.14764013
 C      9   8   7     2.689476564448   120.59418421   359.11228543
 N     10   9   8     2.721040490222   122.59216163   178.34162671
 C     11  10   9     2.692163815023   123.61904836    12.95017025
 C     12  11  10     2.716369779557   123.67836453    55.92182995
 Cl    13  12  11     3.428755795198   119.57449343     0.12806478
 C     13  12  11     2.661437721137   122.94164242   177.40494374
 C     15  13  12     2.662781215947   119.87855171   358.06554026
 C     16  15  13     2.662545448364   119.76175884   359.86704183
 C     17  16  15     2.659473108682   119.48940385     1.43796273
 Cl    18  17  16     3.432244245139   117.96225196   178.69754380
 H      1   2   3     1.932692158714   105.71303101     8.96199500
 H      4   2   1     2.090357139923   107.82074819   320.83656315
 H      4   2   1     2.083774205808   108.04262279   203.06993941
 H      6   5   4     2.076972862107   118.73451937   359.48881214
 H      7   6   5     2.074134902343   120.13891934   180.62839251
 H      8   7   6     2.076635647305   120.13373094   179.27369196
 H      9   8   7     2.072705771972   120.21386845   178.14511561
 H     11  10   9     2.052904130738   113.72868057   217.91273637
 H     15  13  12     2.076212850999   119.37579786   179.61295921
 H     16  15  13     2.074947698345   120.11150893   180.58706085
 H     17  16  15     2.076180241082   120.91059881   180.46624264

---------------------
BASIS SET INFORMATION
---------------------
There are 5 groups of distinct atoms

 Group   1 Type O   : 6s3p contracted to 2s1p pattern {33/3}
 Group   2 Type C   : 6s3p contracted to 2s1p pattern {33/3}
 Group   3 Type N   : 6s3p contracted to 2s1p pattern {33/3}
 Group   4 Type Cl  : 9s6p contracted to 3s2p pattern {333/33}
 Group   5 Type H   : 3s contracted to 1s pattern {3}

Atom   0O    basis set group =>   1
Atom   1C    basis set group =>   2
Atom   2O    basis set group =>   1
Atom   3C    basis set group =>   2
Atom   4C    basis set group =>   2
Atom   5C    basis set group =>   2
Atom   6C    basis set group =>   2
Atom   7C    basis set group =>   2
Atom   8C    basis set group =>   2
Atom   9C    basis set group =>   2
Atom  10N    basis set group =>   3
Atom  11C    basis set group =>   2
Atom  12C    basis set group =>   2
Atom  13Cl   basis set group =>   4
Atom  14C    basis set group =>   2
Atom  15C    basis set group =>   2
Atom  16C    basis set group =>   2
Atom  17C    basis set group =>   2
Atom  18Cl   basis set group =>   4
Atom  19H    basis set group =>   5
Atom  20H    basis set group =>   5
Atom  21H    basis set group =>   5
Atom  22H    basis set group =>   5
Atom  23H    basis set group =>   5
Atom  24H    basis set group =>   5
Atom  25H    basis set group =>   5
Atom  26H    basis set group =>   5
Atom  27H    basis set group =>   5
Atom  28H    basis set group =>   5
Atom  29H    basis set group =>   5

-------------------------
BASIS SET IN INPUT FORMAT
-------------------------

 # Basis set for element : H 
 NewGTO H 
 S 3 
   1       3.4252509100      0.1543289707
   2       0.6239137300      0.5353281424
   3       0.1688554000      0.4446345420
  end;

 # Basis set for element : C 
 NewGTO C 
 S 3 
   1      71.6168370000      0.1543289700
   2      13.0450960000      0.5353281400
   3       3.5305122000      0.4446345400
 S 3 
   1       2.9412494000     -0.0999672301
   2       0.6834831000      0.3995128303
   3       0.2222899000      0.7001154705
 P 3 
   1       2.9412494000      0.1559162721
   2       0.6834831000      0.6076837282
   3       0.2222899000      0.3919573953
  end;

 # Basis set for element : N 
 NewGTO N 
 S 3 
   1      99.1061690000      0.1543289703
   2      18.0523120000      0.5353281411
   3       4.8856602000      0.4446345409
 S 3 
   1       3.7804559000     -0.0999672284
   2       0.8784966000      0.3995128238
   3       0.2857144000      0.7001154591
 P 3 
   1       3.7804559000      0.1559162685
   2       0.8784966000      0.6076837143
   3       0.2857144000      0.3919573863
  end;

 # Basis set for element : O 
 NewGTO O 
 S 3 
   1     130.7093200000      0.1543289687
   2      23.8088610000      0.5353281356
   3       6.4436083000      0.4446345363
 S 3 
   1       5.0331513000     -0.0999672287
   2       1.1695961000      0.3995128246
   3       0.3803890000      0.7001154606
 P 3 
   1       5.0331513000      0.1559162685
   2       1.1695961000      0.6076837141
   3       0.3803890000      0.3919573862
  end;

 # Basis set for element : Cl
 NewGTO Cl
 S 3 
   1     601.3456136000      0.1543289673
   2     109.5358542000      0.5353281423
   3      29.6446768600      0.4446345422
 S 3 
   1      38.9604188900     -0.0999672292
   2       9.0535634770      0.3995128261
   3       2.9444998340      0.7001154689
 P 3 
   1      38.9604188900      0.1559162750
   2       9.0535634770      0.6076837186
   3       2.9444998340      0.3919573931
 S 3 
   1       2.1293864950     -0.2196203690
   2       0.5940934274      0.2255954336
   3       0.2325241410      0.9003984260
 P 3 
   1       2.1293864950      0.0105876043
   2       0.5940934274      0.5951670053
   3       0.2325241410      0.4620010120
  end;

---------------------------------
AUXILIARY/J BASIS SET INFORMATION
---------------------------------
There are 5 groups of distinct atoms

 Group   1 Type O   : 12s5p4d2f1g contracted to 6s4p3d1f1g pattern {711111/2111/211/2/1}
 Group   2 Type C   : 12s5p4d2f1g contracted to 6s4p3d1f1g pattern {711111/2111/211/2/1}
 Group   3 Type N   : 12s5p4d2f1g contracted to 6s4p3d1f1g pattern {711111/2111/211/2/1}
 Group   4 Type Cl  : 14s5p5d2f1g contracted to 8s4p3d1f1g pattern {71111111/2111/311/2/1}
 Group   5 Type H   : 5s2p1d contracted to 3s1p1d pattern {311/2/1}

Atom   0O    basis set group =>   1
Atom   1C    basis set group =>   2
Atom   2O    basis set group =>   1
Atom   3C    basis set group =>   2
Atom   4C    basis set group =>   2
Atom   5C    basis set group =>   2
Atom   6C    basis set group =>   2
Atom   7C    basis set group =>   2
Atom   8C    basis set group =>   2
Atom   9C    basis set group =>   2
Atom  10N    basis set group =>   3
Atom  11C    basis set group =>   2
Atom  12C    basis set group =>   2
Atom  13Cl   basis set group =>   4
Atom  14C    basis set group =>   2
Atom  15C    basis set group =>   2
Atom  16C    basis set group =>   2
Atom  17C    basis set group =>   2
Atom  18Cl   basis set group =>   4
Atom  19H    basis set group =>   5
Atom  20H    basis set group =>   5
Atom  21H    basis set group =>   5
Atom  22H    basis set group =>   5
Atom  23H    basis set group =>   5
Atom  24H    basis set group =>   5
Atom  25H    basis set group =>   5
Atom  26H    basis set group =>   5
Atom  27H    basis set group =>   5
Atom  28H    basis set group =>   5
Atom  29H    basis set group =>   5

-------------------------------------
AUXILIARY/J BASIS SET IN INPUT FORMAT
-------------------------------------

 # Auxiliary/J basis set for element : H 
 NewAuxJGTO H 
 S 3 
   1      15.6752927000      0.1007184237
   2       3.6063578000      0.3404257499
   3       1.2080016000      0.6491996172
 S 1 
   1       0.4726794000      1.0000000000
 S 1 
   1       0.2018100000      1.0000000000
 P 2 
   1       2.0281365000      0.5596620919
   2       0.5358730000      0.5596620919
 D 1 
   1       2.2165124000      1.0000000000
  end;

 # Auxiliary/J basis set for element : C 
 NewAuxJGTO C 
 S 7 
   1    1861.0916331000      0.0134602335
   2     642.9939764000      0.0299160374
   3     235.1105725000      0.1008649584
   4      90.7028894000      0.2370970548
   5      36.7794552000      0.3924037254
   6      15.6046273000      0.3195862154
   7       6.8907294000      0.0530104441
 S 1 
   1       3.1478850000     -1.0000000000
 S 1 
   1       1.4777287000      1.0000000000
 S 1 
   1       0.7076466000      1.0000000000
 S 1 
   1       0.3430122000      1.0000000000
 S 1 
   1       0.1669453000      1.0000000000
 P 2 
   1      13.5472892000     -0.6769313712
   2       5.4669419000     -0.3779500978
 P 1 
   1       2.1751721000      1.0000000000
 P 1 
   1       0.8582194000      1.0000000000
 P 1 
   1       0.3376720000      1.0000000000
 D 2 
   1       5.9287253000     -0.3533329857
   2       1.9809209000     -0.7456525731
 D 1 
   1       0.8055417000     -1.0000000000
 D 1 
   1       0.3531244000     -1.0000000000
 F 2 
   1       1.6755626000      0.6311076882
   2       0.5997536000      0.4968166032
 G 1 
   1       1.0024600000     -1.0000000000
  end;

 # Auxiliary/J basis set for element : N 
 NewAuxJGTO N 
 S 7 
   1    2542.9401785000      0.0128431329
   2    1029.5472946000      0.0206655120
   3     424.9053546000      0.0652200677
   4     178.4573708000      0.1617388940
   5      76.1362742000      0.3094256941
   6      32.9338653000      0.3918849307
   7      14.4155436000      0.1822470660
 S 1 
   1       6.3718891000     -1.0000000000
 S 1 
   1       2.8381742000      1.0000000000
 S 1 
   1       1.2711793000      1.0000000000
 S 1 
   1       0.5712407000      1.0000000000
 S 1 
   1       0.2569887000      1.0000000000
 P 2 
   1      17.8975990000     -1.0974070137
   2       6.5346319000      0.1380055963
 P 1 
   1       2.3523645000      1.0000000000
 P 1 
   1       0.8397377000      1.0000000000
 P 1 
   1       0.2989335000      1.0000000000
 D 2 
   1       7.6909870000      0.1770780943
   2       2.3044972000      0.8918319220
 D 1 
   1       0.8403987000      1.0000000000
 D 1 
   1       0.3303797000      1.0000000000
 F 2 
   1       2.3331076000      0.6223178877
   2       0.8446137000      0.5036714203
 G 1 
   1       1.4037700000     -1.0000000000
  end;

 # Auxiliary/J basis set for element : O 
 NewAuxJGTO O 
 S 7 
   1    2876.8216605000      0.0168151159
   2    1004.7443032000      0.0340137548
   3     369.7579954000      0.1194951309
   4     142.9442404000      0.2664627624
   5      57.8366425000      0.4202764046
   6      24.3864983000      0.2765077335
   7      10.6622662000      0.0057008815
 S 1 
   1       4.8070437000     -1.0000000000
 S 1 
   1       2.2210770000      1.0000000000
 S 1 
   1       1.0447795000      1.0000000000
 S 1 
   1       0.4968425000      1.0000000000
 S 1 
   1       0.2371384000      1.0000000000
 P 2 
   1      64.2613382000     -0.2731534179
   2      16.3006076000     -0.8168011598
 P 1 
   1       4.3550542000      1.0000000000
 P 1 
   1       1.2019554000      1.0000000000
 P 1 
   1       0.3354196000      1.0000000000
 D 2 
   1       9.2146611000     -0.4661230638
   2       2.8435251000     -0.6600908911
 D 1 
   1       0.9955759000     -1.0000000000
 D 1 
   1       0.3649441000     -1.0000000000
 F 2 
   1       2.6420115000      0.5931563945
   2       0.7345613000      0.5931563945
 G 1 
   1       1.3931000000     -1.0000000000
  end;

 # Auxiliary/J basis set for element : Cl
 NewAuxJGTO Cl
 S 7 
   1    8044.2766240000      0.0309054740
   2    2924.5123954000      0.0600734063
   3    1110.8168739000      0.1862207460
   4     439.9050761000      0.3715503251
   5     181.1987287000      0.4220785347
   6      77.4148302000      0.0994388367
   7      34.1977273000     -0.0596902748
 S 1 
   1      15.5648397000      1.0000000000
 S 1 
   1       7.2707873000      1.0000000000
 S 1 
   1       3.4711900000     -1.0000000000
 S 1 
   1       1.6860808000     -1.0000000000
 S 1 
   1       0.8293125000      1.0000000000
 S 1 
   1       0.4110124000      1.0000000000
 S 1 
   1       0.2042190000      1.0000000000
 P 2 
   1      12.2564993000      1.4910316311
   2       4.8922575000     -1.4908224419
 P 1 
   1       1.9265460000      1.0000000000
 P 1 
   1       0.7525989000     -1.0000000000
 P 1 
   1       0.2932189000     -1.0000000000
 D 3 
   1      28.4370504000     -1.0829567244
   2       7.2772298000      0.5502349187
   3       2.3111621000     -0.5567798939
 D 1 
   1       0.8580943000     -1.0000000000
 D 1 
   1       0.3376227000     -1.0000000000
 F 2 
   1       1.2035685000      0.5557691438
   2       0.4700000000      0.5557691438
 G 1 
   1       0.7521100000     -1.0000000000
  end;


Checking for AutoStart:
The File: Diclofenac\Diclofenac_B3LYP_STO-3G\Diclofenac_B3LYP_STO-3G.orcainp.gbw exists
Trying to determine its content:
     ... Fine, the file contains calculation information
     ... Fine, the calculation information was read
     ... Fine, the file contains a basis set
     ... Fine, the basis set was read
     ... Fine, the file contains a geometry
     ... Fine, the geometry was read
     ... Fine, the file contains a set of orbitals
     ... Fine, the orbitals can be read
     => possible old guess file was deleted
     => GBW file was renamed to GES file
     => GES file is set as startup file
     => Guess is set to MORead
     ... now leaving AutoStart

------------------------------------------------------------------------------
                             ORCA STARTUP CALCULATIONS
                           -- RI-GTO INTEGRALS CHOSEN --
------------------------------------------------------------------------------
------------------------------------------------------------------------------
                   ___                                                        
                  /   \      - P O W E R E D   B Y -                         
                 /     \                                                     
                 |  |  |   _    _      __       _____    __    __             
                 |  |  |  | |  | |    /  \     |  _  \  |  |  /  |          
                  \  \/   | |  | |   /    \    | | | |  |  | /  /          
                 / \  \   | |__| |  /  /\  \   | |_| |  |  |/  /          
                |  |  |   |  __  | /  /__\  \  |    /   |      \           
                |  |  |   | |  | | |   __   |  |    \   |  |\   \          
                \     /   | |  | | |  |  |  |  | |\  \  |  | \   \       
                 \___/    |_|  |_| |__|  |__|  |_| \__\ |__|  \__/        
                                                                              
                      - O R C A' S   B I G   F R I E N D -                    
                                      &                                       
                       - I N T E G R A L  F E E D E R -                       
                                                                              
 v1 FN, 2020, v2 2021, v3 2022-2024                                           
------------------------------------------------------------------------------


----------------------
SHARK INTEGRAL PACKAGE
----------------------

Number of atoms                             ...     30
Number of basis functions                   ...    114
Number of shells                            ...     72
Maximum angular momentum                    ...      1
Integral batch strategy                     ... SHARK/LIBINT Hybrid
RI-J (if used) integral strategy            ... SPLIT-RIJ (Revised 2003 algorithm where possible)
Printlevel                                  ...      1
Contraction scheme used                     ... SEGMENTED contraction
Prescreening option                         ... SCHWARTZ
   Thresh                                   ... 1.000e-10
   Tcut                                     ... 1.000e-11
   Tpresel                                  ... 1.000e-11 
Coulomb Range Separation                    ... NOT USED
Exchange Range Separation                   ... NOT USED
Multipole approximations                    ... NOT USED
Finite Nucleus Model                        ... NOT USED
CABS basis                                  ... NOT available
Auxiliary Coulomb fitting basis             ... AVAILABLE
   # of basis functions in Aux-J            ...   1056
   # of shells in Aux-J                     ...    344
   Maximum angular momentum in Aux-J        ...      4
Auxiliary J/K fitting basis                 ... NOT available
Auxiliary Correlation fitting basis         ... NOT available
Auxiliary 'external' fitting basis          ... NOT available

Checking pre-screening integrals            ... done (  0.0 sec) Dimension = 72
Check shell pair data                       ... done (  0.0 sec)
Shell pair information
Shell pair cut-off parameter TPreSel        ...   1.0e-11
Total number of shell pairs                 ...      2628
Shell pairs after pre-screening             ...      2116
Total number of primitive shell pairs       ...     23652
Primitive shell pairs kept                  ...     11644
          la=0 lb=0:    970 shell pairs
          la=1 lb=0:    926 shell pairs
          la=1 lb=1:    220 shell pairs

Calculating one electron integrals          ... done (  0.0 sec)
Calculating RI/J V-Matrix + Cholesky decomp.... done (  0.0 sec)
Calculating Nuclear repulsion               ... done (  0.0 sec) ENN=   1637.845186244376 Eh

Diagonalization of the overlap matrix:
Smallest eigenvalue                        ... 1.819e-01
Time for diagonalization                   ...    0.005 sec
Threshold for overlap eigenvalues          ... 1.000e-07
Number of eigenvalues below threshold      ... 0
Time for construction of square roots      ...    0.002 sec
Total time needed                          ...    0.007 sec

-------------------
DFT GRID GENERATION
-------------------

General Integration Accuracy     IntAcc      ... 4.388
Radial Grid Type                 RadialGrid  ... OptM3 with GC (2021)
Angular Grid (max. ang.)         AngularGrid ... 4 (Lebedev-302)
Angular grid pruning method      GridPruning ... 4 (adaptive)
Weight generation scheme         WeightScheme... mBecke (2022)
Basis function cutoff            BFCut       ... 1.0000e-10
Integration weight cutoff        WCut        ... 1.0000e-14
Partially contracted basis set               ... off
Rotationally invariant grid construction     ... off
Angular grids for H and He will be reduced by one unit

Total number of grid points                  ...   151434
Total number of batches                      ...     2385
Average number of points per batch           ...       63
Average number of grid points per atom       ...     5048

--------------------
COSX GRID GENERATION
--------------------

GRIDX 1
-------
General Integration Accuracy     IntAcc      ... 3.816
Radial Grid Type                 RadialGrid  ... OptM3 with GC (2021)
Angular Grid (max. ang.)         AngularGrid ... 1 (Lebedev-50)
Angular grid pruning method      GridPruning ... 4 (adaptive)
Weight generation scheme         WeightScheme... mBecke (2022)
Basis function cutoff            BFCut       ... 1.0000e-10
Integration weight cutoff        WCut        ... 1.0000e-14
Partially contracted basis set               ... on
Rotationally invariant grid construction     ... off
Angular grids for H and He will be reduced by one unit

Total number of grid points                  ...    21251
Total number of batches                      ...      181
Average number of points per batch           ...      117
Average number of grid points per atom       ...      708
UseSFitting                                  ... on

GRIDX 2
-------
General Integration Accuracy     IntAcc      ... 4.020
Radial Grid Type                 RadialGrid  ... OptM3 with GC (2021)
Angular Grid (max. ang.)         AngularGrid ... 2 (Lebedev-110)
Angular grid pruning method      GridPruning ... 4 (adaptive)
Weight generation scheme         WeightScheme... mBecke (2022)
Basis function cutoff            BFCut       ... 1.0000e-10
Integration weight cutoff        WCut        ... 1.0000e-14
Partially contracted basis set               ... on
Rotationally invariant grid construction     ... off
Angular grids for H and He will be reduced by one unit

Total number of grid points                  ...    42043
Total number of batches                      ...      342
Average number of points per batch           ...      122
Average number of grid points per atom       ...     1401
UseSFitting                                  ... on

GRIDX 3
-------
General Integration Accuracy     IntAcc      ... 4.338
Radial Grid Type                 RadialGrid  ... OptM3 with GC (2021)
Angular Grid (max. ang.)         AngularGrid ... 3 (Lebedev-194)
Angular grid pruning method      GridPruning ... 4 (adaptive)
Weight generation scheme         WeightScheme... mBecke (2022)
Basis function cutoff            BFCut       ... 1.0000e-10
Integration weight cutoff        WCut        ... 1.0000e-14
Partially contracted basis set               ... on
Rotationally invariant grid construction     ... off
Angular grids for H and He will be reduced by one unit

Total number of grid points                  ...    93364
Total number of batches                      ...      745
Average number of points per batch           ...      125
Average number of grid points per atom       ...     3112
UseSFitting                                  ... on
Initializing property integral containers    ... done (  0.0 sec)

SHARK setup successfully completed in   1.6 seconds

Maximum memory used throughout the entire STARTUP-calculation: 54.0 MB
-------------------------------------------------------------------------------
                                 ORCA GUESS
                   Start orbitals & Density for SCF / CASSCF
-------------------------------------------------------------------------------

------------
SCF SETTINGS
------------
Hamiltonian:
 Density Functional     Method          .... DFT(GTOs)
 Exchange Functional    Exchange        .... B88
   X-Alpha parameter    XAlpha          ....  0.666667
   Becke's b parameter  XBeta           ....  0.004200
 Correlation Functional Correlation     .... LYP
 LDA part of GGA corr.  LDAOpt          .... VWN-5
 Gradients option       PostSCFGGA      .... off
 Hybrid DFT is turned on
   Fraction HF Exchange ScalHFX         ....  0.200000
   Scaling of DF-GGA-X  ScalDFX         ....  0.720000
   Scaling of DF-GGA-C  ScalDFC         ....  0.810000
   Scaling of DF-LDA-C  ScalLDAC        ....  1.000000
   Perturbative correction              ....  0.000000
   NL short-range parameter             ....  4.800000
 RI-approximation to the Coulomb term is turned on
   Number of AuxJ basis functions       .... 1056
   RIJ-COSX (HFX calculated with COS-X)).... on


General Settings:
 Integral files         IntName         .... Diclofenac\Diclofenac_B3LYP_STO-3G\Diclofenac_B3LYP_STO-3G.orcainp
 Hartree-Fock type      HFTyp           .... RHF
 Total Charge           Charge          ....    0
 Multiplicity           Mult            ....    1
 Number of Electrons    NEL             ....  152
 Basis Dimension        Dim             ....  114
 Nuclear Repulsion      ENuc            ....   1637.8451862444 Eh

Convergence Acceleration:
 AO-DIIS                CNVDIIS         .... on
   Start iteration      DIISMaxIt       ....    12
   Startup error        DIISStart       ....  0.200000
   # of expansion vecs  DIISMaxEq       ....     5
   Bias factor          DIISBfac        ....   1.050
   Max. coefficient     DIISMaxC        ....  10.000
 MO-DIIS                CNVKDIIS        .... off
 Trust-Rad. Augm. Hess. CNVTRAH         .... auto
   Auto Start mean grad. ratio tolernc. ....  1.125000
   Auto Start start iteration           ....     1
   Auto Start num. interpolation iter.  ....    10
   Max. Number of Micro iterations      ....    24
   Max. Number of Macro iterations      .... Maxiter - #DIIS iter
   Number of Davidson start vectors     ....     2
   Converg. threshold    (grad. norm)   ....   5.000e-05
   Grad. Scal. Fac. for Micro threshold ....   0.100
   Minimum threshold for Micro iter.    ....   1.000e-02
   NR start threshold (gradient norm)   ....   1.000e-04
   Initial trust radius                 ....   0.400
   Minimum AH scaling param. (alpha)    ....   1.000
   Maximum AH scaling param. (alpha)    .... 1000.000
   Quad. conv. algorithm                .... NR
   White noise on init. David. guess    .... on
   Maximum white noise                  ....   0.010
   Pseudo random numbers                .... off
   Inactive MOs                         .... canonical
   Orbital update algorithm             .... Taylor
   Preconditioner                       .... Diag
   Full preconditioner red. dimension   ....   250
 SOSCF                  CNVSOSCF        .... on
   Start iteration      SOSCFMaxIt      ....   150
   Startup grad/error   SOSCFStart      ....  0.003300
   Hessian update       SOSCFHessUp     .... L-BFGS
 Level Shifting         CNVShift        .... on
   Level shift para.    LevelShift      ....    0.2500
   Turn off err/grad.   ShiftErr        ....    0.0010
 Zerner damping         CNVZerner       .... off
 Static damping         CNVDamp         .... on
   Fraction old density DampFac         ....    0.7000
   Max. Damping (<1)    DampMax         ....    0.9800
   Min. Damping (>=0)   DampMin         ....    0.0000
   Turn off err/grad.   DampErr         ....    0.1000

SCF Procedure:
 Maximum # iterations   MaxIter         ....   125
 SCF integral mode      SCFMode         .... Direct
   Integral package                     .... SHARK and LIBINT hybrid scheme
 Reset frequency        DirectResetFreq ....    20
 Integral Threshold     Thresh          ....  1.000e-10 Eh
 Primitive CutOff       TCut            ....  1.000e-11 Eh

Convergence Tolerance:
 Convergence Check Mode ConvCheckMode   .... Total+1el-Energy
 Convergence forced     ConvForced      .... 1
 Energy Change          TolE            ....  1.000e-06 Eh
 1-El. energy change                    ....  1.000e-03 Eh
 Orbital Gradient       TolG            ....  5.000e-05
 Orbital Rotation angle TolX            ....  5.000e-05
 DIIS Error             TolErr          ....  1.000e-06

---------------------
INITIAL GUESS: MOREAD
---------------------
Guess MOs are being read from file: Diclofenac\Diclofenac_B3LYP_STO-3G\Diclofenac_B3LYP_STO-3G.orcainp.ges
Input Geometry matches current geometry (good)
Input basis set matches current basis set (good)
Occupation numbers will be reassigned to an Aufbau configuration
MOs were renormalized
MOs were reorthogonalized (Cholesky)
                      ------------------
                      INITIAL GUESS DONE (   0.0 sec)
                      ------------------
----------------------
INITIAL GUESS ORBITALS
----------------------
                      0         1         2         3         4         5   
                 -100.45747 -100.45469 -18.96825 -18.90430 -14.15078 -10.12609
                   2.00000   2.00000   2.00000   2.00000   2.00000   2.00000
                  --------  --------  --------  --------  --------  --------
  0O   1s         0.000003  0.000000  0.993461 -0.001033 -0.000194  0.000618
  0O   2s        -0.000024 -0.000000  0.029020  0.000281  0.001043 -0.005201
  0O   1pz       -0.000005  0.000000  0.002696  0.000444 -0.000329  0.000067
  0O   1px       -0.000000 -0.000000  0.000402 -0.000176  0.000579 -0.001750
  0O   1py       -0.000001 -0.000000 -0.002043 -0.000255  0.000724  0.003519
  1C   1s         0.000001 -0.000000  0.000577  0.000674 -0.000020  0.991276
  1C   2s        -0.000003  0.000000 -0.004542 -0.007990  0.000159  0.037475
  1C   1pz       -0.000002 -0.000000  0.000267 -0.005513 -0.000019  0.000588
  1C   1px        0.000000  0.000000  0.002173  0.001426  0.000036 -0.000083
  1C   1py       -0.000002  0.000000 -0.004307  0.004902  0.000146 -0.000339
  2O   1s         0.000000 -0.000000  0.000948  0.993582  0.000000  0.000529
  2O   2s        -0.000000  0.000000  0.000251  0.028911  0.000005 -0.007515
  2O   1pz       -0.000000 -0.000000  0.000179 -0.004307 -0.000012  0.002232
  2O   1px        0.000001 -0.000000 -0.000385  0.001069 -0.000002 -0.000555
  2O   1py       -0.000000  0.000000  0.000486  0.003920 -0.000008 -0.002062
  3C   1s         0.000000  0.000000 -0.000030 -0.000018 -0.000001 -0.005181
  3C   2s        -0.000001 -0.000000  0.000379  0.000067 -0.000006 -0.006589
  3C   1pz       -0.000001 -0.000000  0.000053  0.000185 -0.000035 -0.004148
  3C   1px        0.000001  0.000000 -0.000251  0.000107 -0.000092  0.003271
  3C   1py       -0.000002 -0.000000  0.000287 -0.000517 -0.000008 -0.000175
  4C   1s         0.000000  0.000000 -0.000013 -0.000009 -0.000015 -0.000544
  4C   2s        -0.000001 -0.000000  0.000058  0.000051  0.000305 -0.000132
  4C   1pz       -0.000000  0.000003  0.000045  0.000026  0.000015 -0.000230
  4C   1px        0.000001  0.000000 -0.000058 -0.000038 -0.000372  0.000078
  4C   1py       -0.000001 -0.000001  0.000024  0.000011  0.000179 -0.000055
  5C   1s         0.000000  0.000000 -0.000000  0.000001  0.000005  0.000032
  5C   2s        -0.000000 -0.000000  0.000006 -0.000004  0.000003  0.000029
  5C   1pz        0.000000 -0.000000 -0.000013  0.000001 -0.000018  0.000047
  5C   1px        0.000000  0.000000 -0.000002  0.000007 -0.000032 -0.000040
  5C   1py       -0.000000  0.000000  0.000002  0.000004 -0.000062  0.000002
  6C   1s        -0.000000  0.000000 -0.000000  0.000000  0.000003 -0.000000
  6C   2s        -0.000000 -0.000000  0.000000 -0.000002  0.000012  0.000002
  6C   1pz       -0.000000 -0.000000  0.000001 -0.000000  0.000006 -0.000005
  6C   1px       -0.000000  0.000000 -0.000001  0.000001  0.000030 -0.000000
  6C   1py        0.000000 -0.000000 -0.000000  0.000001 -0.000022 -0.000003
  7C   1s         0.000000  0.000000 -0.000000  0.000000  0.000004  0.000000
  7C   2s        -0.000000 -0.000000  0.000002 -0.000000  0.000028  0.000002
  7C   1pz       -0.000000  0.000004 -0.000000 -0.000000  0.000012  0.000000
  7C   1px        0.000000 -0.000000 -0.000002 -0.000000  0.000024 -0.000001
  7C   1py       -0.000000 -0.000001  0.000000 -0.000000  0.000059 -0.000000
  8C   1s         0.000000 -0.000003  0.000000  0.000000 -0.000016 -0.000003
  8C   2s         0.000000  0.000005 -0.000006 -0.000002  0.000278 -0.000015
  8C   1pz        0.000000 -0.000023 -0.000003  0.000001 -0.000041  0.000014
  8C   1px        0.000000 -0.000002  0.000001  0.000002 -0.000321  0.000004
  8C   1py       -0.000000  0.000002  0.000005 -0.000001  0.000326  0.000009
  9C   1s         0.000000 -0.000003 -0.000010  0.000001  0.000587 -0.000062
  9C   2s         0.000000  0.000012  0.000062 -0.000013 -0.006532  0.000041
  9C   1pz       -0.000001 -0.000018  0.000009 -0.000005  0.000447 -0.000040
  9C   1px       -0.000001 -0.000001 -0.000024  0.000007  0.004744  0.000054
  9C   1py       -0.000000  0.000011  0.000030  0.000014 -0.003197 -0.000023
 10N   1s         0.000002 -0.000001 -0.000112  0.000000  0.992334 -0.000036
 10N   2s        -0.000020  0.000002  0.001313  0.000004  0.036499  0.000266
 10N   1pz       -0.000000 -0.000009  0.000437  0.000002  0.001575  0.000058
 10N   1px        0.000014  0.000001 -0.000885 -0.000003  0.000815 -0.000166
 10N   1py        0.000020  0.000007 -0.000432  0.000011  0.000771 -0.000052
 11C   1s        -0.000000 -0.000000 -0.000007  0.000000  0.000590  0.000026
 11C   2s        -0.000011 -0.000009  0.000040 -0.000002 -0.006718 -0.000002
 11C   1pz       -0.000007  0.000005 -0.000010  0.000000 -0.000703  0.000003
 11C   1px        0.000004 -0.000006  0.000005 -0.000001 -0.000150 -0.000002
 11C   1py        0.000012  0.000013 -0.000027  0.000002  0.005876  0.000005
 12C   1s        -0.000001 -0.000057 -0.000001 -0.000000 -0.000007  0.000004
 12C   2s         0.000005  0.000379 -0.000001  0.000000  0.000158  0.000002
 12C   1pz        0.000005 -0.000249  0.000000  0.000000 -0.000051  0.000001
 12C   1px       -0.000004  0.000197  0.000003  0.000000  0.000118  0.000000
 12C   1py        0.000003 -0.000189 -0.000006 -0.000000 -0.000367 -0.000002
 13Cl  1s        -0.000024  0.994366  0.000000 -0.000000 -0.000002  0.000000
 13Cl  2s        -0.000000  0.016137 -0.000001  0.000000  0.000004 -0.000000
 13Cl  1pz       -0.000000  0.000074 -0.000001  0.000000  0.000010  0.000000
 13Cl  1px        0.000000 -0.000057  0.000000  0.000000 -0.000012  0.000000
 13Cl  1py       -0.000000  0.000054  0.000001 -0.000000  0.000000 -0.000000
 13Cl  3s         0.000001 -0.001986  0.000002 -0.000000 -0.000070 -0.000000
 13Cl  2pz        0.000001 -0.000156  0.000003 -0.000000 -0.000060 -0.000000
 13Cl  2px       -0.000000  0.000123 -0.000002  0.000000  0.000072 -0.000000
 13Cl  2py        0.000001 -0.000117 -0.000003  0.000000 -0.000012  0.000000
 14C   1s        -0.000000  0.000000 -0.000000 -0.000000  0.000003  0.000000
 14C   2s        -0.000001 -0.000022  0.000003  0.000000  0.000026  0.000000
 14C   1pz        0.000002  0.000017  0.000000 -0.000000 -0.000042 -0.000000
 14C   1px       -0.000001 -0.000012 -0.000000  0.000000  0.000026  0.000000
 14C   1py       -0.000001 -0.000005 -0.000002 -0.000000 -0.000012 -0.000000
 15C   1s        -0.000001 -0.000001 -0.000000 -0.000000  0.000002 -0.000000
 15C   2s         0.000004  0.000004  0.000000  0.000000  0.000007  0.000000
 15C   1pz        0.000001 -0.000000  0.000000  0.000000 -0.000004  0.000000
 15C   1px       -0.000000  0.000001 -0.000001 -0.000000 -0.000004 -0.000000
 15C   1py       -0.000006 -0.000006  0.000000  0.000000  0.000035  0.000000
 16C   1s         0.000001 -0.000000 -0.000001 -0.000000  0.000003  0.000001
 16C   2s        -0.000022 -0.000001  0.000010  0.000000  0.000028  0.000002
 16C   1pz       -0.000016 -0.000001  0.000004  0.000000  0.000048  0.000001
 16C   1px        0.000014  0.000001  0.000002  0.000000 -0.000029  0.000000
 16C   1py       -0.000007 -0.000001 -0.000008 -0.000000 -0.000010 -0.000002
 17C   1s        -0.000057 -0.000001 -0.000004 -0.000000 -0.000011  0.000013
 17C   2s         0.000378  0.000004  0.000023 -0.000000  0.000233  0.000002
 17C   1pz        0.000272 -0.000005 -0.000007  0.000000  0.000070 -0.000001
 17C   1px       -0.000192  0.000004 -0.000006 -0.000000 -0.000060 -0.000002
 17C   1py       -0.000158  0.000003 -0.000041 -0.000000 -0.000406 -0.000006
 18Cl  1s         0.994366  0.000024  0.000007  0.000000  0.000003 -0.000003
 18Cl  2s         0.016138  0.000000 -0.000024 -0.000001 -0.000011  0.000008
 18Cl  1pz       -0.000081  0.000000  0.000007  0.000000  0.000007  0.000002
 18Cl  1px        0.000056 -0.000000 -0.000001  0.000000  0.000005  0.000000
 18Cl  1py        0.000042 -0.000000  0.000032  0.000001  0.000024  0.000007
 18Cl  3s        -0.001987  0.000001  0.000165  0.000003  0.000085  0.000046
 18Cl  2pz        0.000171 -0.000001 -0.000044 -0.000001 -0.000043 -0.000015
 18Cl  2px       -0.000120  0.000000  0.000004 -0.000000 -0.000025 -0.000001
 18Cl  2py       -0.000094  0.000000 -0.000180 -0.000004 -0.000155 -0.000056
 19H   1s         0.000041 -0.000000 -0.006303 -0.000119  0.000187 -0.001437
 20H   1s        -0.000002  0.000000 -0.000133  0.000040 -0.000086 -0.000071
 21H   1s        -0.000001 -0.000000 -0.000041 -0.000129 -0.000001 -0.000055
 22H   1s         0.000000  0.000000  0.000002  0.000002 -0.000021 -0.000006
 23H   1s         0.000000  0.000000 -0.000000  0.000000 -0.000016 -0.000000
 24H   1s         0.000000 -0.000000 -0.000000  0.000000 -0.000020 -0.000000
 25H   1s        -0.000000  0.000018  0.000002  0.000000 -0.000105  0.000000
 26H   1s         0.000073  0.000003 -0.003425 -0.000030 -0.007790 -0.000673
 27H   1s         0.000001  0.000037  0.000000 -0.000000 -0.000017 -0.000000
 28H   1s         0.000001  0.000001 -0.000000 -0.000000 -0.000014 -0.000000
 29H   1s         0.000035  0.000001  0.000001  0.000000 -0.000017  0.000000
                      6         7         8         9        10        11   
                 -10.08586 -10.07322 -10.07310 -10.05091 -10.04137 -10.03203
                   2.00000   2.00000   2.00000   2.00000   2.00000   2.00000
                  --------  --------  --------  --------  --------  --------
  0O   1s         0.000013 -0.000003  0.000007  0.000017  0.000023 -0.000001
  0O   2s        -0.000069  0.000014 -0.000034 -0.000101 -0.000340  0.000005
  0O   1pz        0.000024 -0.000002  0.000009  0.000032  0.000025 -0.000002
  0O   1px       -0.000045  0.000007 -0.000020 -0.000045 -0.000066  0.000003
  0O   1py       -0.000054  0.000015 -0.000032 -0.000048  0.000084  0.000002
  1C   1s         0.000028 -0.000004  0.000015 -0.000061 -0.006646 -0.000002
  1C   2s        -0.000007  0.000002 -0.000004  0.000008  0.006812  0.000001
  1C   1pz        0.000001 -0.000000  0.000001 -0.000008 -0.004472 -0.000000
  1C   1px       -0.000001 -0.000001 -0.000000  0.000018  0.003639  0.000000
  1C   1py       -0.000007  0.000002 -0.000006  0.000061 -0.000356  0.000001
  2O   1s         0.000000 -0.000000  0.000000 -0.000002  0.000023 -0.000000
  2O   2s        -0.000000  0.000000 -0.000001  0.000017 -0.000073  0.000000
  2O   1pz        0.000001 -0.000000  0.000001 -0.000014  0.000205 -0.000000
  2O   1px        0.000000  0.000000 -0.000000 -0.000000 -0.000271 -0.000000
  2O   1py        0.000000 -0.000000  0.000000  0.000002  0.000237  0.000000
  3C   1s         0.000018  0.000004 -0.000010  0.000170 -0.990170 -0.000006
  3C   2s         0.000003  0.000001 -0.000000 -0.000334 -0.045042 -0.000000
  3C   1pz       -0.000001  0.000000 -0.000003  0.000020  0.000181  0.000000
  3C   1px        0.000001  0.000000  0.000001 -0.000100  0.000077 -0.000000
  3C   1py        0.000002  0.000001 -0.000004 -0.000085  0.000132  0.000001
  4C   1s         0.000077  0.000010  0.000002  0.009855  0.016365  0.000002
  4C   2s         0.000100  0.000012  0.000009  0.009281  0.008029  0.000000
  4C   1pz        0.000009  0.000003  0.000006  0.000415 -0.001103 -0.000000
  4C   1px       -0.000000  0.000002  0.000003  0.000411 -0.005029 -0.000000
  4C   1py        0.000078  0.000008  0.000006  0.006105 -0.002624  0.000000
  5C   1s         0.000002 -0.000001 -0.000001  0.000293  0.000100 -0.000000
  5C   2s         0.000002 -0.000000 -0.000001 -0.000391 -0.000374  0.000000
  5C   1pz       -0.000001  0.000000 -0.000000  0.000011  0.000075 -0.000000
  5C   1px       -0.000002  0.000001  0.000001  0.000087  0.000244 -0.000000
  5C   1py       -0.000002 -0.000001 -0.000001 -0.000134  0.000046 -0.000000
  6C   1s        -0.000002 -0.000003 -0.000002  0.000457  0.000142 -0.000000
  6C   2s        -0.000004 -0.000001 -0.000001  0.000159  0.000046  0.000000
  6C   1pz        0.000001 -0.000000  0.000000 -0.000023 -0.000011  0.000000
  6C   1px        0.000005  0.000003  0.000002 -0.000172 -0.000053  0.000000
  6C   1py       -0.000003 -0.000001 -0.000001  0.000126  0.000036 -0.000000
  7C   1s         0.000058  0.000020  0.000015  0.000256  0.000073 -0.000000
  7C   2s         0.000118  0.000033  0.000025 -0.000360 -0.000009 -0.000000
  7C   1pz       -0.000008  0.000006  0.000006  0.000021 -0.000004  0.000000
  7C   1px       -0.000067 -0.000014 -0.000011  0.000148 -0.000024  0.000000
  7C   1py        0.000048  0.000018  0.000013  0.000006 -0.000012 -0.000000
  8C   1s         0.000132 -0.000142 -0.000108  0.006370  0.000176 -0.000003
  8C   2s        -0.000199 -0.000207 -0.000156  0.009213  0.000059 -0.000001
  8C   1pz       -0.000053 -0.000056 -0.000045 -0.001098 -0.000009 -0.000000
  8C   1px       -0.000282 -0.000072 -0.000049 -0.005454 -0.000014  0.000001
  8C   1py        0.000005 -0.000129 -0.000090 -0.002583 -0.000070 -0.000000
  9C   1s         0.001636  0.000061  0.000189 -0.990646  0.000025  0.000007
  9C   2s         0.000175 -0.000009  0.000022 -0.042635 -0.000359 -0.000002
  9C   1pz       -0.000005 -0.000006 -0.000033 -0.000274  0.000060  0.000004
  9C   1px       -0.000095 -0.000029 -0.000014 -0.000812  0.000174  0.000002
  9C   1py        0.000350  0.000029  0.000050  0.000733  0.000133 -0.000001
 10N   1s        -0.000742 -0.000006 -0.000016 -0.000766 -0.000001  0.000008
 10N   2s         0.006890  0.000022 -0.000084  0.006877 -0.000057 -0.000036
 10N   1pz       -0.000593  0.000150 -0.000038  0.000389 -0.000031 -0.000025
 10N   1px       -0.000115 -0.000145  0.000049  0.004250  0.000108  0.000019
 10N   1py        0.004881  0.000013  0.000044 -0.002599 -0.000120 -0.000040
 11C   1s        -0.989702 -0.009006 -0.044817 -0.001771 -0.000019  0.000133
 11C   2s        -0.042898  0.002030  0.010189  0.000101  0.000030  0.000267
 11C   1pz        0.000359 -0.005518  0.000478  0.000001  0.000008 -0.000040
 11C   1px        0.000479  0.004302 -0.001265  0.000180  0.000004  0.000003
 11C   1py       -0.001611  0.000549  0.004566 -0.000171 -0.000028  0.000164
 12C   1s         0.030868 -0.825006 -0.547790 -0.000104  0.000003  0.000760
 12C   2s         0.010079 -0.034415 -0.022802 -0.000050  0.000000 -0.000062
 12C   1pz        0.004423 -0.000865 -0.000413  0.000029  0.000000 -0.000164
 12C   1px       -0.003051  0.000914  0.000465  0.000010 -0.000002  0.000141
 12C   1py       -0.003016 -0.001210 -0.000764 -0.000041  0.000003 -0.000038
 13Cl  1s        -0.000000 -0.000181 -0.000126 -0.000022  0.000000  0.000001
 13Cl  2s        -0.000014  0.000553  0.000383  0.000052 -0.000001 -0.000005
 13Cl  1pz        0.000014 -0.000325 -0.000226 -0.000032  0.000000  0.000003
 13Cl  1px       -0.000009  0.000261  0.000180  0.000008 -0.000000 -0.000002
 13Cl  1py        0.000017 -0.000251 -0.000167  0.000032 -0.000000  0.000002
 13Cl  3s        -0.000261  0.004235  0.002911  0.000214 -0.000002 -0.000035
 13Cl  2pz       -0.000192  0.002958  0.002054  0.000236 -0.000000 -0.000027
 13Cl  2px        0.000135 -0.002371 -0.001633 -0.000064  0.000002  0.000019
 13Cl  2py       -0.000151  0.002280  0.001522 -0.000230  0.000004 -0.000017
 14C   1s        -0.000114  0.006040  0.005020  0.000125 -0.000001 -0.011290
 14C   2s        -0.000584  0.007831  0.005365  0.000036 -0.000001  0.000182
 14C   1pz       -0.000180  0.000595  0.000637 -0.000001  0.000000  0.000220
 14C   1px        0.000116  0.000242 -0.000015 -0.000004 -0.000000 -0.000198
 14C   1py        0.000272 -0.005028 -0.003453 -0.000027  0.000000  0.000151
 15C   1s         0.000298  0.000084  0.000540  0.000004  0.000001 -0.036795
 15C   2s         0.000197 -0.000116 -0.000570 -0.000001  0.000000 -0.010767
 15C   1pz        0.000022  0.000111 -0.000037 -0.000000  0.000000 -0.004484
 15C   1px        0.000010 -0.000103  0.000016 -0.000000  0.000000  0.003255
 15C   1py       -0.000163  0.000039  0.000108  0.000000 -0.000000  0.003000
 16C   1s        -0.000142 -0.003695  0.007023  0.000009 -0.000006  0.989779
 16C   2s        -0.000590 -0.005147  0.007974 -0.000001 -0.000002  0.044288
 16C   1pz        0.000132 -0.000443  0.000355  0.000002 -0.000001 -0.001003
 16C   1px       -0.000155 -0.000205  0.000582  0.000003 -0.000000  0.001097
 16C   1py        0.000292  0.003286 -0.005139  0.000001  0.000001 -0.000897
 17C   1s         0.030894  0.548532 -0.824511 -0.000075  0.000011  0.009264
 17C   2s         0.010151  0.022911 -0.034352  0.000049 -0.000001 -0.009004
 17C   1pz       -0.003630 -0.000831  0.000982 -0.000042 -0.000000  0.000809
 17C   1px        0.003548  0.000537 -0.000610 -0.000001  0.000000  0.000403
 17C   1py       -0.003567  0.000696 -0.001019 -0.000018  0.000006 -0.006280
 18Cl  1s        -0.000001  0.000119 -0.000188  0.000001  0.000001  0.000008
 18Cl  2s        -0.000013 -0.000364  0.000571 -0.000002 -0.000003 -0.000008
 18Cl  1pz       -0.000015 -0.000234  0.000366 -0.000001 -0.000001  0.000001
 18Cl  1px        0.000008  0.000164 -0.000259  0.000000  0.000000 -0.000001
 18Cl  1py        0.000016  0.000141 -0.000211 -0.000002 -0.000002  0.000001
 18Cl  3s        -0.000260 -0.002773  0.004320 -0.000012 -0.000013  0.000107
 18Cl  2pz        0.000205  0.002132 -0.003331  0.000009  0.000008 -0.000054
 18Cl  2px       -0.000132 -0.001496  0.002356 -0.000003 -0.000003  0.000031
 18Cl  2py       -0.000130 -0.001279  0.001920  0.000014  0.000015  0.000063
 19H   1s        -0.000012  0.000002 -0.000006 -0.000006  0.000125 -0.000001
 20H   1s        -0.000006  0.000001 -0.000004  0.000153  0.009129  0.000001
 21H   1s         0.000001  0.000000 -0.000001  0.000099  0.009178  0.000000
 22H   1s        -0.000000 -0.000000 -0.000000  0.000086  0.000017 -0.000000
 23H   1s        -0.000000 -0.000000 -0.000000  0.000051  0.000013 -0.000000
 24H   1s        -0.000015 -0.000011 -0.000008  0.000081  0.000012 -0.000000
 25H   1s         0.000640  0.000498  0.000358 -0.000162  0.000013 -0.000000
 26H   1s         0.000423 -0.000060  0.000187  0.000517  0.000331 -0.000030
 27H   1s         0.000053 -0.000191 -0.000035  0.000002  0.000000  0.000002
 28H   1s         0.000024  0.000027  0.000147  0.000000  0.000000  0.000479
 29H   1s         0.000049  0.000158 -0.000106  0.000000  0.000000 -0.008915
                     12        13        14        15        16        17   
                 -10.03143 -10.02256 -10.01223 -10.00045 -10.00025  -9.99642
                   2.00000   2.00000   2.00000   2.00000   2.00000   2.00000
                  --------  --------  --------  --------  --------  --------
  0O   1s         0.000000  0.000000 -0.000020 -0.000000  0.000000 -0.000000
  0O   2s        -0.000001 -0.000001  0.000111  0.000001 -0.000006  0.000004
  0O   1pz        0.000000 -0.000000 -0.000025 -0.000000 -0.000001 -0.000001
  0O   1px       -0.000001  0.000000  0.000083  0.000001  0.000004 -0.000001
  0O   1py       -0.000001 -0.000000 -0.000007  0.000000 -0.000000  0.000002
  1C   1s         0.000000  0.000000  0.000821  0.000002  0.000018  0.000007
  1C   2s        -0.000000 -0.000000 -0.000267 -0.000000 -0.000005  0.000002
  1C   1pz       -0.000000 -0.000000 -0.000065 -0.000001 -0.000014 -0.000002
  1C   1px        0.000000  0.000000 -0.000266  0.000001 -0.000012 -0.000001
  1C   1py       -0.000000  0.000000 -0.000086  0.000001  0.000021 -0.000004
  2O   1s        -0.000000 -0.000000 -0.000013 -0.000000 -0.000001  0.000000
  2O   2s         0.000000  0.000000  0.000072  0.000001  0.000009 -0.000001
  2O   1pz        0.000000 -0.000000 -0.000028 -0.000000 -0.000005  0.000001
  2O   1px        0.000000  0.000000  0.000063  0.000000  0.000000  0.000000
  2O   1py        0.000000 -0.000000  0.000049  0.000000  0.000005  0.000000
  3C   1s         0.000001 -0.000001  0.017832  0.000087 -0.000643  0.000231
  3C   2s        -0.000000 -0.000000 -0.006256 -0.000054 -0.000068 -0.000074
  3C   1pz       -0.000000  0.000000 -0.001046 -0.000007  0.000037 -0.000015
  3C   1px        0.000000 -0.000000 -0.004919 -0.000037  0.000035 -0.000037
  3C   1py       -0.000000  0.000000 -0.002464 -0.000014  0.000098 -0.000075
  4C   1s         0.000004  0.000004  0.989954  0.001804 -0.031009  0.001690
  4C   2s         0.000004  0.000000  0.043280  0.000078  0.007935  0.000234
  4C   1pz        0.000002  0.000000  0.000360 -0.000026  0.000767  0.000001
  4C   1px        0.000000 -0.000000  0.001633 -0.000101  0.005205 -0.000019
  4C   1py        0.000002  0.000000  0.000333 -0.000172 -0.003338  0.000068
  5C   1s         0.000000  0.000000 -0.029624 -0.018550 -0.988767  0.008346
  5C   2s        -0.000000  0.000000 -0.010610 -0.000077 -0.044142  0.000369
  5C   1pz       -0.000000 -0.000000  0.000741  0.000067 -0.000068 -0.000001
  5C   1px        0.000000 -0.000000  0.005109  0.000334 -0.000448  0.000077
  5C   1py       -0.000000  0.000000 -0.003597  0.000180 -0.001350 -0.000200
  6C   1s         0.000000 -0.000000 -0.000130 -0.044635  0.047699 -0.014466
  6C   2s         0.000000 -0.000000  0.000646 -0.011048  0.011497 -0.001185
  6C   1pz        0.000000 -0.000000 -0.000051 -0.000387 -0.001088 -0.000026
  6C   1px       -0.000000  0.000000 -0.000305 -0.000286 -0.005649 -0.000005
  6C   1py        0.000000 -0.000000 -0.000022 -0.006297 -0.002383 -0.000437
  7C   1s         0.000000  0.000000 -0.002454  0.985502 -0.015382  0.086804
  7C   2s         0.000000  0.000000 -0.000252  0.045125 -0.001568 -0.005298
  7C   1pz        0.000001  0.000000  0.000041 -0.000263  0.000040  0.000660
  7C   1px       -0.000000 -0.000000  0.000194 -0.001809  0.000127  0.005061
  7C   1py        0.000000  0.000000  0.000113 -0.000496  0.000359 -0.003559
  8C   1s         0.000020  0.000005 -0.001251 -0.085841  0.010404  0.986744
  8C   2s         0.000004  0.000001  0.000196 -0.013157  0.000761  0.042963
  8C   1pz       -0.000004 -0.000000 -0.000002 -0.000647 -0.000007 -0.000113
  8C   1px       -0.000002 -0.000001  0.000008 -0.005044  0.000061 -0.000462
  8C   1py        0.000003  0.000000 -0.000075  0.003787 -0.000328 -0.001012
  9C   1s        -0.000129 -0.000009  0.011299 -0.000409 -0.000567  0.007818
  9C   2s         0.000001  0.000000 -0.008484  0.001088 -0.000182 -0.008763
  9C   1pz       -0.000009 -0.000001  0.000390  0.000127 -0.000021 -0.001149
  9C   1px        0.000002 -0.000001  0.000363  0.000610 -0.000086 -0.005526
  9C   1py        0.000013 -0.000000  0.006133  0.000223 -0.000111 -0.002534
 10N   1s        -0.000009 -0.000007 -0.000009  0.000011 -0.000012 -0.000015
 10N   2s         0.000043  0.000050  0.000310 -0.000081  0.000070  0.000285
 10N   1pz       -0.000034 -0.000004  0.000037 -0.000012 -0.000007  0.000032
 10N   1px        0.000021  0.000000 -0.000001 -0.000076  0.000036  0.000185
 10N   1py        0.000030  0.000040 -0.000122 -0.000011 -0.000069  0.000091
 11C   1s        -0.000164 -0.000377  0.000114  0.000061 -0.000007  0.000162
 11C   2s        -0.000274  0.000051 -0.000058 -0.000019  0.000009 -0.000049
 11C   1pz        0.000007 -0.000020 -0.000015 -0.000009  0.000003  0.000008
 11C   1px        0.000029 -0.000007 -0.000057 -0.000029  0.000001 -0.000073
 11C   1py       -0.000164  0.000161  0.000039  0.000001 -0.000008  0.000111
 12C   1s        -0.009198 -0.000807  0.000010  0.000048 -0.000002 -0.000221
 12C   2s         0.008985  0.000065  0.000004 -0.000015  0.000001  0.000124
 12C   1pz       -0.000614 -0.000027  0.000004 -0.000006  0.000001  0.000046
 12C   1px       -0.000426  0.000001 -0.000004 -0.000017  0.000000  0.000082
 12C   1py        0.006292  0.000152  0.000002  0.000006  0.000000 -0.000004
 13Cl  1s        -0.000008 -0.000005 -0.000001 -0.000003  0.000000  0.000021
 13Cl  2s         0.000010  0.000014  0.000002  0.000007 -0.000001 -0.000050
 13Cl  1pz        0.000001 -0.000003 -0.000000 -0.000004  0.000000  0.000031
 13Cl  1px        0.000000  0.000002  0.000000 -0.000002  0.000000  0.000013
 13Cl  1py       -0.000002 -0.000009  0.000001  0.000002 -0.000000 -0.000020
 13Cl  3s        -0.000103  0.000071  0.000006  0.000024 -0.000002 -0.000172
 13Cl  2pz       -0.000044  0.000026  0.000004  0.000030 -0.000003 -0.000229
 13Cl  2px        0.000031 -0.000023 -0.000002  0.000013 -0.000002 -0.000090
 13Cl  2py       -0.000063  0.000074 -0.000007 -0.000017  0.000002  0.000141
 14C   1s        -0.989661 -0.041178  0.000003 -0.000002  0.000000  0.000023
 14C   2s        -0.044302  0.007450 -0.000001  0.000000 -0.000000 -0.000019
 14C   1pz       -0.001172  0.003851 -0.000001 -0.000000  0.000000  0.000002
 14C   1px        0.000997 -0.003648  0.000001  0.000001 -0.000000  0.000001
 14C   1py        0.000735  0.003298  0.000001 -0.000001  0.000000  0.000018
 15C   1s         0.040170 -0.989111  0.000004 -0.000000 -0.000000  0.000005
 15C   2s         0.011105 -0.043243  0.000000  0.000000 -0.000000 -0.000001
 15C   1pz       -0.003678 -0.000123  0.000000 -0.000000 -0.000000  0.000001
 15C   1px        0.003531 -0.000022  0.000000  0.000000 -0.000000 -0.000001
 15C   1py       -0.003598  0.001320  0.000000 -0.000000 -0.000000  0.000000
 16C   1s        -0.009711 -0.038620 -0.000002 -0.000000 -0.000000  0.000004
 16C   2s        -0.001149  0.007564  0.000001  0.000000 -0.000000  0.000001
 16C   1pz        0.000280 -0.004516  0.000000 -0.000000 -0.000000 -0.000001
 16C   1px       -0.000219  0.003316 -0.000000 -0.000000  0.000000 -0.000001
 16C   1py       -0.000108  0.002763 -0.000001 -0.000000  0.000000 -0.000001
 17C   1s        -0.000983 -0.000828 -0.000006  0.000001  0.000001 -0.000017
 17C   2s         0.000261  0.000047 -0.000003 -0.000000 -0.000000 -0.000017
 17C   1pz       -0.000195 -0.000013  0.000006  0.000001 -0.000000  0.000027
 17C   1px        0.000135 -0.000008  0.000003  0.000002 -0.000000  0.000007
 17C   1py        0.000158  0.000138 -0.000004  0.000000  0.000001  0.000002
 18Cl  1s        -0.000002 -0.000005 -0.000001 -0.000000  0.000000 -0.000000
 18Cl  2s         0.000005  0.000014  0.000002  0.000000 -0.000000  0.000000
 18Cl  1pz        0.000003  0.000004  0.000001  0.000000 -0.000000  0.000000
 18Cl  1px       -0.000002 -0.000002 -0.000000  0.000000  0.000000  0.000000
 18Cl  1py       -0.000002 -0.000008  0.000001  0.000000 -0.000000  0.000000
 18Cl  3s         0.000035  0.000073  0.000008  0.000000 -0.000001  0.000000
 18Cl  2pz       -0.000029 -0.000040 -0.000006 -0.000000  0.000001 -0.000001
 18Cl  2px        0.000021  0.000019  0.000003 -0.000000 -0.000000 -0.000000
 18Cl  2py        0.000013  0.000070 -0.000009  0.000000  0.000001 -0.000003
 19H   1s        -0.000000  0.000001  0.000009  0.000000  0.000000  0.000001
 20H   1s        -0.000000  0.000000 -0.000217  0.000003  0.000048 -0.000007
 21H   1s        -0.000000  0.000000 -0.000069  0.000010  0.000109 -0.000012
 22H   1s        -0.000000 -0.000000  0.000397  0.000066  0.008998 -0.000157
 23H   1s         0.000000  0.000000 -0.000085  0.000564 -0.000588  0.000053
 24H   1s        -0.000000  0.000000 -0.000035 -0.008967  0.000253 -0.000634
 25H   1s        -0.000002 -0.000000 -0.000074  0.000953 -0.000027 -0.008967
 26H   1s         0.000009  0.000002 -0.000254 -0.000004  0.000032 -0.000041
 27H   1s         0.008925  0.000219 -0.000000 -0.000000 -0.000000  0.000000
 28H   1s        -0.000513  0.008911 -0.000000 -0.000000  0.000000 -0.000000
 29H   1s         0.000188  0.000196 -0.000000 -0.000000  0.000000 -0.000000
                     18        19        20        21        22        23   
                  -9.99272  -9.25823  -9.25528  -7.03638  -7.03355  -7.02202
                   2.00000   2.00000   2.00000   2.00000   2.00000   2.00000
                  --------  --------  --------  --------  --------  --------
  0O   1s         0.000000 -0.000070 -0.000002  0.000017 -0.000001  0.000042
  0O   2s        -0.000001  0.000530  0.000011 -0.000171  0.000007 -0.000382
  0O   1pz       -0.000000  0.000104 -0.000004 -0.000200 -0.000003 -0.000090
  0O   1px        0.000000  0.000007  0.000005  0.000173  0.000004 -0.000011
  0O   1py        0.000000  0.000012  0.000006  0.000078  0.000005  0.000088
  1C   1s        -0.000001 -0.000031  0.000000  0.000006 -0.000000  0.000016
  1C   2s        -0.000000  0.000068 -0.000001 -0.000029  0.000000 -0.000050
  1C   1pz       -0.000003  0.000040  0.000001 -0.000035  0.000000 -0.000038
  1C   1px       -0.000003 -0.000006 -0.000001  0.000027  0.000000  0.000001
  1C   1py        0.000004  0.000048 -0.000000  0.000004  0.000000 -0.000032
  2O   1s        -0.000000 -0.000002  0.000000  0.000001  0.000000  0.000001
  2O   2s         0.000001  0.000004 -0.000000  0.000004 -0.000000 -0.000003
  2O   1pz       -0.000000  0.000008  0.000000 -0.000013 -0.000000 -0.000008
  2O   1px        0.000000 -0.000013  0.000000  0.000008  0.000000  0.000012
  2O   1py        0.000001  0.000004 -0.000000 -0.000003 -0.000000 -0.000004
  3C   1s        -0.000200 -0.000010 -0.000002 -0.000001  0.000000  0.000005
  3C   2s         0.000052  0.000013  0.000005 -0.000004 -0.000002 -0.000012
  3C   1pz        0.000021  0.000022  0.000001  0.000002  0.000003 -0.000018
  3C   1px        0.000072 -0.000012 -0.000006  0.000002 -0.000002  0.000011
  3C   1py       -0.000002  0.000044  0.000004  0.000012  0.000001 -0.000035
  4C   1s        -0.001752 -0.000006 -0.000007 -0.000001 -0.000000  0.000003
  4C   2s         0.000048  0.000010  0.000001  0.000004 -0.000019 -0.000009
  4C   1pz        0.000013  0.000006 -0.000068  0.000001 -0.000032 -0.000004
  4C   1px        0.000124 -0.000019 -0.000001 -0.000007 -0.000003  0.000015
  4C   1py       -0.000164  0.000016  0.000013  0.000005 -0.000010 -0.000013
  5C   1s        -0.048410 -0.000001 -0.000000 -0.000000  0.000000  0.000000
  5C   2s         0.007157  0.000006  0.000002  0.000002  0.000001 -0.000005
  5C   1pz        0.001079 -0.000003  0.000001 -0.000001  0.000001  0.000002
  5C   1px        0.005504 -0.000004 -0.000003 -0.000001 -0.000001  0.000003
  5C   1py        0.002747  0.000002 -0.000000  0.000001 -0.000000 -0.000001
  6C   1s        -0.988330  0.000000 -0.000000  0.000000  0.000000 -0.000000
  6C   2s        -0.043148  0.000000  0.000002 -0.000000  0.000001 -0.000000
  6C   1pz        0.000127  0.000000  0.000003 -0.000000  0.000002 -0.000000
  6C   1px        0.001001  0.000000 -0.000000  0.000000 -0.000001 -0.000000
  6C   1py       -0.000651 -0.000000  0.000001 -0.000000  0.000000  0.000000
  7C   1s        -0.047931 -0.000000 -0.000008 -0.000000  0.000000  0.000000
  7C   2s         0.007217  0.000002  0.000005  0.000001 -0.000027 -0.000002
  7C   1pz       -0.000414  0.000000 -0.000078  0.000000 -0.000031  0.000000
  7C   1px       -0.000515 -0.000001  0.000007 -0.000000  0.000021  0.000001
  7C   1py       -0.006167  0.000001  0.000016  0.000000 -0.000004 -0.000001
  8C   1s        -0.010099 -0.000001  0.000159  0.000000  0.000017  0.000001
  8C   2s        -0.000319 -0.000001 -0.000125 -0.000002  0.000027  0.000000
  8C   1pz        0.000029 -0.000005  0.000542 -0.000003  0.000138  0.000004
  8C   1px        0.000192 -0.000003  0.000061 -0.000000  0.000073  0.000006
  8C   1py       -0.000069  0.000005 -0.000069  0.000002 -0.000042 -0.000005
  9C   1s        -0.000641 -0.000008  0.000186 -0.000001  0.000040  0.000004
  9C   2s         0.000191 -0.000001 -0.000296 -0.000010 -0.000098  0.000010
  9C   1pz        0.000033  0.000035  0.000436  0.000024  0.000135 -0.000025
  9C   1px        0.000227  0.000007  0.000020  0.000010  0.000017 -0.000008
  9C   1py       -0.000108 -0.000001 -0.000263 -0.000005 -0.000152  0.000005
 10N   1s        -0.000008 -0.000041  0.000022  0.000017  0.000030  0.000045
 10N   2s         0.000055  0.000465 -0.000015  0.000008 -0.000119 -0.000458
 10N   1pz        0.000003 -0.000032  0.000207 -0.000110  0.000179 -0.000072
[...]
29 H  s               2.1       3.3       0.6       0.4       0.6       0.1

                    108       109       110       111       112       113   
                   0.61131   0.63311   0.70625   0.73526   0.75470   0.78777
                   0.00000   0.00000   0.00000   0.00000   0.00000   0.00000
                  --------  --------  --------  --------  --------  --------
 0 O  s               0.0       0.2       0.0       0.0       0.0       0.0
 0 O  pz              0.1       0.7       0.0       0.0       0.0       0.0
 0 O  px              0.1       0.8       0.0       0.0       0.0       0.0
 0 O  py              0.2       0.2       0.0       0.0       0.0       0.0
 1 C  s               0.0       2.5       0.0       0.0       0.0       0.0
 1 C  pz              0.1      15.8       0.0       0.0       0.1       0.0
 1 C  px              0.0       0.9       0.0       0.0       0.0       0.0
 1 C  py              0.0      13.1       0.0       0.0       0.1       0.0
 2 O  s               0.0       5.8       0.0       0.0       0.0       0.0
 2 O  pz              0.0       8.0       0.0       0.0       0.0       0.0
 2 O  px              0.0       0.5       0.0       0.0       0.0       0.0
 2 O  py              0.0       6.5       0.0       0.0       0.0       0.0
 3 C  s               0.1       0.8       0.0       0.0       0.0       0.6
 3 C  px              0.0       2.5       0.0       0.0       0.3       0.5
 3 C  py              0.0       6.6       0.0       0.2       0.8       0.3
 4 C  s               4.7       0.1       0.0       0.1       0.0       2.5
 4 C  pz              0.0       0.0       0.0       0.0       0.0       0.3
 4 C  px              0.2       2.0       0.0       0.7       2.2       8.2
 4 C  py              1.9       3.6       0.0       1.7      12.2       1.0
 5 C  s               1.8       2.1       0.0       0.0       0.0       3.0
 5 C  pz              0.0       0.0       0.0       0.1       0.4       0.0
 5 C  px              2.9       0.7       0.1       3.1      13.9       0.0
 5 C  py              5.4       0.6       0.1       0.1       0.0      11.4
 6 C  s               0.1       1.4       0.0       0.0       0.0       3.0
 6 C  pz              0.1       0.1       0.0       0.1       0.3       0.1
 6 C  px              0.7       1.2       0.1       0.8       5.2       8.3
 6 C  py              9.1       1.4       0.0       2.3       7.8       5.4
 7 C  s               2.2       0.0       0.0       0.0       0.0       3.4
 7 C  pz              0.1       0.0       0.0       0.0       0.0       0.4
 7 C  px              3.9       0.3       0.1       0.6       3.5       9.8
 7 C  py              3.0       6.4       0.0       2.3       9.3       3.1
 8 C  s               6.0       0.6       0.0       0.1       0.0       2.7
 8 C  pz              0.2       0.2       0.0       0.0       0.4       0.1
 8 C  px              2.0       3.9       0.0       1.8      12.2       0.1
 8 C  py              2.8       0.7       0.0       0.1       0.3      11.7
 9 C  s               0.0       2.6       0.1       0.0       0.1       1.8
 9 C  pz              0.3       0.0       0.0       0.0       0.2       0.1
 9 C  px             10.4       0.1       0.0       0.2       3.8       7.6
 9 C  py              6.5       0.1       0.0       0.8       9.1       2.3
10 N  s               0.0       0.0       0.0       0.4       0.1       0.4
10 N  pz              0.3       0.0       0.3       0.0       0.0       0.0
10 N  px              0.3       0.3       0.8       0.0       0.2       0.9
10 N  py              9.7       0.0       0.0       0.7       2.0       0.6
11 C  s               1.6       0.0       0.0       1.3       0.0       0.0
11 C  pz              0.0       0.0       7.2       0.1       0.0       0.1
11 C  px              0.0       0.0       5.0       0.0       0.0       0.1
11 C  py              4.2       0.0       0.1       6.9       2.8       0.1
12 C  s               0.0       0.0       0.2       3.3       0.6       0.0
12 C  pz              0.0       0.0       2.8       2.1       0.4       0.0
12 C  px              0.0       0.0       0.6       1.7       0.3       0.0
12 C  py              0.2       0.0      10.5       1.8       0.5       0.0
14 C  s               0.0       0.0       0.0       2.7       0.5       0.0
14 C  pz              0.9       0.0       1.2       6.8       0.9       0.0
14 C  px              0.7       0.0       2.1       3.5       0.4       0.0
14 C  py              0.1       0.1      15.0       1.9       0.4       0.0
15 C  s               0.7       0.0       0.0       2.9       0.4       0.0
15 C  pz              0.1       0.1      11.5       0.2       0.0       0.0
15 C  px              0.0       0.0       8.0       0.1       0.0       0.0
15 C  py              2.0       0.0       0.0      14.9       1.9       0.0
16 C  s               0.0       0.0       0.0       2.7       0.5       0.0
16 C  pz              1.1       0.0       4.1       4.6       0.6       0.0
16 C  px              0.7       0.0       1.2       4.4       0.6       0.0
16 C  py              0.1       0.1      13.2       3.3       0.5       0.0
17 C  s               0.1       0.0       0.1       3.3       0.6       0.0
17 C  pz              0.0       0.0       0.9       2.7       0.5       0.0
17 C  px              0.0       0.0       1.9       1.3       0.3       0.0
17 C  py              0.3       0.0      11.6       1.7       0.3       0.1
19 H  s               0.0       0.2       0.0       0.0       0.0       0.0
20 H  s               0.0       2.2       0.0       0.0       0.1       0.0
21 H  s               0.2       2.1       0.0       0.1       0.4       0.0
22 H  s               4.5       0.0       0.0       0.0       0.0       2.1
23 H  s               0.4       0.4       0.0       0.0       0.0       2.8
24 H  s               1.7       0.2       0.0       0.0       0.0       2.6
25 H  s               0.1       1.0       0.0       0.0       0.0       2.3
26 H  s               3.2       0.2       0.6       0.0       0.4       0.0
27 H  s               0.5       0.0       0.0       2.6       0.3       0.0
28 H  s               0.5       0.0       0.0       3.5       0.4       0.0
29 H  s               0.5       0.0       0.0       2.6       0.3       0.0



                      *****************************
                      * MAYER POPULATION ANALYSIS *
                      *****************************

  NA   - Mulliken gross atomic population
  ZA   - Total nuclear charge
  QA   - Mulliken gross atomic charge
  VA   - Mayer's total valence
  BVA  - Mayer's bonded valence
  FA   - Mayer's free valence

  ATOM       NA         ZA         QA         VA         BVA        FA
  0 O      8.2226     8.0000    -0.2226     2.3626     2.3626     0.0000
  1 C      5.7672     6.0000     0.2328     3.8925     3.8925    -0.0000
  2 O      8.2023     8.0000    -0.2023     2.2857     2.2857    -0.0000
  3 C      6.1592     6.0000    -0.1592     3.9465     3.9465     0.0000
  4 C      6.0167     6.0000    -0.0167     3.9632     3.9632    -0.0000
  5 C      6.0855     6.0000    -0.0855     3.9687     3.9687     0.0000
  6 C      6.0971     6.0000    -0.0971     3.9692     3.9692    -0.0000
  7 C      6.0853     6.0000    -0.0853     3.9701     3.9701     0.0000
  8 C      6.0977     6.0000    -0.0977     3.9660     3.9660    -0.0000
  9 C      5.9236     6.0000     0.0764     3.9416     3.9416    -0.0000
 10 N      7.3207     7.0000    -0.3207     3.2736     3.2736    -0.0000
 11 C      5.9097     6.0000     0.0903     3.9551     3.9551    -0.0000
 12 C      5.9807     6.0000     0.0193     3.8960     3.8960     0.0000
 13 Cl    17.1366    17.0000    -0.1366     1.0780     1.0780     0.0000
 14 C      6.0735     6.0000    -0.0735     3.9643     3.9643    -0.0000
 15 C      6.0785     6.0000    -0.0785     3.9663     3.9663     0.0000
 16 C      6.0737     6.0000    -0.0737     3.9644     3.9644    -0.0000
 17 C      5.9817     6.0000     0.0183     3.8924     3.8924     0.0000
 18 Cl    17.1423    17.0000    -0.1423     1.0778     1.0778    -0.0000
 19 H      0.7466     1.0000     0.2534     0.9358     0.9358    -0.0000
 20 H      0.8951     1.0000     0.1049     0.9890     0.9890     0.0000
 21 H      0.8959     1.0000     0.1041     0.9892     0.9892     0.0000
 22 H      0.9161     1.0000     0.0839     0.9930     0.9930     0.0000
 23 H      0.9186     1.0000     0.0814     0.9934     0.9934     0.0000
 24 H      0.9159     1.0000     0.0841     0.9929     0.9929     0.0000
 25 H      0.9158     1.0000     0.0842     0.9929     0.9929    -0.0000
 26 H      0.7615     1.0000     0.2385     0.9431     0.9431    -0.0000
 27 H      0.8912     1.0000     0.1088     0.9882     0.9882     0.0000
 28 H      0.8980     1.0000     0.1020     0.9896     0.9896     0.0000
 29 H      0.8906     1.0000     0.1094     0.9880     0.9880    -0.0000

  Mayer bond orders larger than 0.100000
B(  0-O ,  1-C ) :   0.9744 B(  0-O ,  2-O ) :   0.2161 B(  0-O , 19-H ) :   0.8933 
B(  0-O , 26-H ) :   0.1607 B(  1-C ,  2-O ) :   1.9520 B(  1-C ,  3-C ) :   0.9113 
B(  3-C ,  4-C ) :   0.9835 B(  3-C , 20-H ) :   0.9524 B(  3-C , 21-H ) :   0.9615 
B(  4-C ,  5-C ) :   1.4249 B(  4-C ,  7-C ) :   0.1029 B(  4-C ,  9-C ) :   1.3196 
B(  5-C ,  6-C ) :   1.4228 B(  5-C ,  8-C ) :   0.1033 B(  5-C , 22-H ) :   0.9604 
B(  6-C ,  7-C ) :   1.4151 B(  6-C , 23-H ) :   0.9631 B(  7-C ,  8-C ) :   1.4484 
B(  7-C , 24-H ) :   0.9622 B(  8-C ,  9-C ) :   1.3532 B(  8-C , 25-H ) :   0.9589 
B(  9-C , 10-N ) :   1.0667 B( 10-N , 11-C ) :   1.1069 B( 10-N , 26-H ) :   0.7343 
B( 11-C , 12-C ) :   1.3051 B( 11-C , 17-C ) :   1.3079 B( 12-C , 13-Cl) :   0.9510 
B( 12-C , 14-C ) :   1.4235 B( 14-C , 15-C ) :   1.4143 B( 14-C , 27-H ) :   0.9563 
B( 15-C , 16-C ) :   1.4143 B( 15-C , 28-H ) :   0.9582 B( 16-C , 17-C ) :   1.4232 
B( 16-C , 29-H ) :   0.9562 B( 17-C , 18-Cl) :   0.9456 

-------
TIMINGS
-------

Total SCF time: 0 days 0 hours 0 min 13 sec 

Total time                  ....      13.684 sec
Sum of individual times     ....      13.663 sec  ( 99.8%)

SCF preparation             ....       0.275 sec  (  2.0%)
Fock matrix formation       ....      13.174 sec  ( 96.3%)
  Startup                   ....       0.004 sec  (  0.0% of F)
  Split-RI-J                ....       0.511 sec  (  3.9% of F)
  Chain of spheres X        ....      11.151 sec  ( 84.6% of F)
  XC integration            ....       0.590 sec  (  4.5% of F)
    Basis function eval.    ....       0.213 sec  ( 36.1% of XC)
    Density eval.           ....       0.130 sec  ( 22.0% of XC)
    XC-Functional eval.     ....       0.049 sec  (  8.3% of XC)
    XC-Potential eval.      ....       0.132 sec  ( 22.4% of XC)
  CPCM terms                ....       0.904 sec  (  6.9% of F)
Diagonalization             ....       0.000 sec  (  0.0%)
Density matrix formation    ....       0.005 sec  (  0.0%)
Total Energy calculation    ....       0.004 sec  (  0.0%)
Population analysis         ....       0.180 sec  (  1.3%)
Orbital Transformation      ....       0.006 sec  (  0.0%)
Orbital Orthonormalization  ....       0.000 sec  (  0.0%)
DIIS solution               ....       0.010 sec  (  0.1%)
  MO trafo                  ....       0.000 sec  (  0.0 % of DIIS)
  Orb grad                  ....       0.000 sec  (  0.0 % of DIIS)
  Energy W gradient         ....       0.000 sec  (  0.0 % of DIIS)
  DIIS error                ....       0.001 sec  ( 10.0 % of DIIS)
  DIIS work                 ....       0.009 sec  ( 90.0 % of DIIS)
  Form Q                    ....       0.000 sec  (  0.0 % of DIIS)
  Form QpQm                 ....       0.000 sec  (  0.0 % of DIIS)
  Exp/Cayley                ....       0.000 sec  (  0.0 % of DIIS)
  Orb update                ....       0.000 sec  (  0.0 % of DIIS)
  Wake-sleep                ....       0.000 sec  (  0.0 % of DIIS)
SOSCF solution              ....       0.008 sec  (  0.1%)
  MO trafo                  ....       0.004 sec  ( 50.0 % of SOSCF)
  Orb grad                  ....       0.000 sec  (  0.0 % of SOSCF)
  Rot update                ....       0.000 sec  (  0.0 % of SOSCF)
  Step                      ....       0.004 sec  ( 50.0 % of SOSCF)
Finished LeanSCF after  13.8 sec

Maximum memory used throughout the entire LEANSCF-calculation: 70.1 MB

------------------------------------------------------------------------------
                         ORCA PROPERTY INTEGRAL CALCULATIONS
------------------------------------------------------------------------------

GBWName                                   ... Diclofenac\Diclofenac_B3LYP_STO-3G\Diclofenac_B3LYP_STO-3G.orcainp.gbw
Number of atoms                           ...     30
Number of basis functions                 ...    114
Max core memory                           ...   1024 MB

Dipole integrals                          ... YES
Quadrupole integrals                      ...  NO
Linear momentum integrals                 ... YES
Angular momentum integrals                ... YES
Higher moments length integrals           ...  NO
Higher moments velocity integrals         ...  NO
Kinetic energy integrals                  ...  NO
GIAO right hand sides                     ...  NO
GIAO dipole derivative integrals          ...  NO
SOC integrals                             ...  NO
EPR diamagnetic integrals (GIAO)          ...  NO
EPR gauge integrals                       ...  NO
Field gradient integrals                  ...  NO (   0 nuclei)
Spin-dipole/Fermi contact integrals       ...  NO (   0 nuclei)
Contact density integrals                 ...  NO (   0 nuclei)
Nucleus-orbit integrals                   ...  NO (   0 nuclei)
Geometric perturbations                   ...  NO (  30 nuclei)

Choice of electric origin   ... Center of mass
Position of electric origin ... (  7.9341,  2.2901, -1.2361) 
Choice of magnetic origin   ... GIAO
Position of magnetic origin ... (  0.0000,  0.0000,  0.0000) 

Calculating integrals                     ... Electric Dipole (Length)     done (  0.0 sec)
Calculating integrals                     ... Linear Momentum              done (  0.0 sec)
Calculating integrals                     ... Angular Momentum  (ElOri)    done (  0.0 sec)

Property integrals calculated in   0.0 sec

Maximum memory used throughout the entire PROPINT-calculation: 9.4 MB
------------------------------------------------------------------------------
                        ORCA TD-DFT/TDA CALCULATION
------------------------------------------------------------------------------

Input orbitals are from        ... Diclofenac\Diclofenac_B3LYP_STO-3G\Diclofenac_B3LYP_STO-3G.orcainp.gbw
CI-vector output               ... Diclofenac\Diclofenac_B3LYP_STO-3G\Diclofenac_B3LYP_STO-3G.orcainp.cis
Solver                         ... FN-2001
Tamm-Dancoff approximation     ... operative
CIS-Integral strategy          ... AO-integrals
Integral handling              ... AO integral Direct
Max. core memory used          ... 512 MB
Reference state                ... RHF
Generation of triplets         ... off
Follow IRoot                   ... off
Number of operators            ... 1
Orbital ranges used for CIS calculation:
 Operator 0:  Orbitals  27... 75  to  76...113
XAS localization array:
 Operator 0:  Orbitals  -1... -1

-------------------
XC-INTEGRATION GRID
-------------------

General Integration Accuracy     IntAcc      ... 3.467
Radial Grid Type                 RadialGrid  ... OptM3 with GC (2021)
Angular Grid (max. ang.)         AngularGrid ... 1 (Lebedev-50)
Angular grid pruning method      GridPruning ... 4 (adaptive)
Weight generation scheme         WeightScheme... mBecke (2022)
Basis function cutoff            BFCut       ... 1.0000e-10
Integration weight cutoff        WCut        ... 1.0000e-14
Partially contracted basis set               ... off
Rotationally invariant grid construction     ... off
Angular grids for H and He will be reduced by one unit

Total number of grid points                  ...    23869
Total number of batches                      ...      385
Average number of points per batch           ...       61
Average number of grid points per atom       ...      796

---------------------
COSX-INTEGRATION GRID
---------------------

General Integration Accuracy     IntAcc      ... 3.067
Radial Grid Type                 RadialGrid  ... OptM3 with GC (2021)
Angular Grid (max. ang.)         AngularGrid ... 1 (Lebedev-50)
Angular grid pruning method      GridPruning ... 4 (adaptive)
Weight generation scheme         WeightScheme... mBecke (2022)
Basis function cutoff            BFCut       ... 1.0000e-10
Integration weight cutoff        WCut        ... 1.0000e-14
Partially contracted basis set               ... on
Rotationally invariant grid construction     ... off
Angular grids for H and He will be reduced by one unit

Total number of grid points                  ...    11809
Total number of batches                      ...      108
Average number of points per batch           ...      109
Average number of grid points per atom       ...      394

---------------
TD-DFT XC SETUP
---------------

DFT calculation                         ... on
Name of the grid file                   ... Diclofenac\Diclofenac_B3LYP_STO-3G\Diclofenac_B3LYP_STO-3G.orcainp.grid_cis.tmp
RI-approximation                        ... on
Aux-basis dimension                     ... 0
Exchange functional (TD-DFT)            ... B88
   X-Alpha parameter    XAlpha (TD-DFT) ...  0.666667
   Becke's b parameter  XBeta (TD-DFT)  ...  0.004200
Correlation functional (TD-DFT)         ... LYP
 LDA part of GGA corr.  LDAOpt (TD-DFT) ... VWN-5
Hybrid DFT                              ... on
   Exchange mixing (TD-DFT)             ...  0.200
   GGA exch. scaling (TD-DFT)           ...  0.720
   GGA corr. scaling (TD-DFT)           ...  0.810

Building densities             ... done
Calculating rho(r) on the grid ... done
Building xc-kernel on the grid ... done
                    *** TD-DFT CALCULATION INITIALIZED ***

---------------------------------
    LR-CPCM (non-equilibrium)
---------------------------------

Setting up LR-CPCM             ... done

------------------------
DAVIDSON-DIAGONALIZATION
------------------------

Dimension of the eigenvalue problem            ...   1862
Number of roots to be determined               ...     30
Maximum size of the expansion space            ...    150
Maximum number of iterations                   ...    100
Convergence tolerance for the residual         ...    1.000e-06
Convergence tolerance for the energies         ...    1.000e-06
Orthogonality tolerance                        ...    1.000e-14
Level Shift                                    ...    0.000e+00
Constructing the preconditioner                ... o.k.
Building the initial guess                     ... o.k.
Number of trial vectors determined             ...    150


                       ****Iteration    0****
   Time for iteration     :  TOTAL=20.9 TRAFO=0.1 RIJ=1.2 COSX=4.9 XC=3.2
   Size of expansion space: 90
   Lowest Energy          :     0.164617050979
   Maximum Energy change  :     0.277013178160 (vector 29)
   Maximum residual norm  :     0.005159828455

                       ****Iteration    1****
   Time for iteration     :  TOTAL=10.8 TRAFO=0.0 RIJ=1.1 COSX=3.2 XC=1.5
   Size of expansion space: 120
   Lowest Energy          :     0.161969166381
   Maximum Energy change  :     0.006900853784 (vector 9)
   Maximum residual norm  :     0.000203037523

                       ****Iteration    2****
