
                                 *****************
                                 * O   R   C   A *
                                 *****************

                                            #,                                       
                                            ###                                      
                                            ####                                     
                                            #####                                    
                                            ######                                   
                                           ########,                                 
                                     ,,################,,,,,                         
                               ,,#################################,,                 
                          ,,##########################################,,             
                       ,#########################################, ''#####,          
                    ,#############################################,,   '####,        
                  ,##################################################,,,,####,       
                ,###########''''           ''''###############################       
              ,#####''   ,,,,##########,,,,          '''####'''          '####       
            ,##' ,,,,###########################,,,                        '##       
           ' ,,###''''                  '''############,,,                           
         ,,##''                                '''############,,,,        ,,,,,,###''
      ,#''                                            '''#######################'''  
     '                                                          ''''####''''         
             ,#######,   #######,   ,#######,      ##                                
            ,#'     '#,  ##    ##  ,#'     '#,    #''#        ,####,   ,####,        
            ##       ##  ##   ,#'  ##            #'  '#       #'       #'  '#        
            ##       ##  #######   ##           ,######,      #####,   #    #        
            '#,     ,#'  ##    ##  '#,     ,#' ,#      #,     #,   #   #,  ,#        
             '#######'   ##     ##  '#######'  #'      '#     '####' # '####'        



                #########################################################
                #                        -***-                          #
                #          Department of theory and spectroscopy        #
                #                                                       #
                #                      Frank Neese                      #
                #                                                       #
                #     Directorship, Architecture, Infrastructure        #
                #                    SHARK, DRIVERS                     #
                #        Core code/Algorithms in most modules           #
                #                                                       #
                #        Max Planck Institute fuer Kohlenforschung      #
                #                Kaiser Wilhelm Platz 1                 #
                #                 D-45470 Muelheim/Ruhr                 #
                #                      Germany                          #
                #                                                       #
                #                  All rights reserved                  #
                #                        -***-                          #
                #########################################################


                         Program Version 6.0.0  -   RELEASE   -


 With contributions from (in alphabetic order):
   Daniel Aravena         : Magnetic Suceptibility
   Michael Atanasov       : Ab Initio Ligand Field Theory (pilot matlab implementation)
   Alexander A. Auer      : GIAO ZORA, VPT2 properties, NMR spectrum
   Ute Becker             : All parallelization in ORCA, NUMFREQ, NUMCALC
   Giovanni Bistoni       : ED, misc. LED, open-shell LED, HFLD
   Martin Brehm           : Molecular dynamics
   Dmytro Bykov           : pre 5.0 version of the SCF Hessian
   Marcos Casanova-Páez   : Triplet and SCS-CIS(D). UHF-(DLPNO)-IP/EA/STEOM-CCSD. UHF-CVS-IP/STEOM-CCSD
   Vijay G. Chilkuri      : MRCI spin determinant printing, contributions to CSF-ICE
   Pauline Colinet        : FMM embedding
   Dipayan Datta          : RHF DLPNO-CCSD density
   Achintya Kumar Dutta   : EOM-CC, STEOM-CC
   Nicolas Foglia         : Exact transition moments, OPA infrastructure, MCD improvements
   Dmitry Ganyushin       : Spin-Orbit,Spin-Spin,Magnetic field MRCI
   Miquel Garcia          : C-PCM and meta-GGA Hessian, CCSD/C-PCM, Gaussian charge scheme
   Tiago L. C. Gouveia    : GS-ROHF, GS-ROCIS
   Yang Guo               : DLPNO-NEVPT2, F12-NEVPT2, CIM, IAO-localization
   Andreas Hansen         : Spin unrestricted coupled pair/coupled cluster methods
   Ingolf Harden          : AUTO-CI MPn and infrastructure 
   Benjamin Helmich-Paris : MC-RPA, TRAH-(SCF,CASSCF), AVAS, COSX integrals, SCF dyn. polar.
   Lee Huntington         : MR-EOM, pCC
   Robert Izsak           : Overlap fitted RIJCOSX, COSX-SCS-MP3, EOM
   Riya Kayal             : Wick's Theorem for AUTO-CI, AUTO-CI UHF-CCSDT
   Emily Kempfer          : AUTO-CI, RHF CISDT and CCSDT
   Christian Kollmar      : KDIIS, OOCD, Brueckner-CCSD(T), CCSD density, CASPT2, CASPT2-K, improved NEVPT2
   Axel Koslowski         : Symmetry handling
   Simone Kossmann        : Meta GGA functionals, TD-DFT gradient, OOMP2, (MP2 Hessian; deprecated post 5.0)
   Lucas Lang             : DCDCAS
   Marvin Lechner         : AUTO-CI (C++ implementation), FIC-MRCC
   Spencer Leger          : CASSCF response
   Dagmar Lenk            : GEPOL surface, SMD, ORCA-2-JSON
   Dimitrios Liakos       : Extrapolation schemes; Compound Job, initial MDCI parallelization
   Dimitrios Manganas     : Further ROCIS development; embedding schemes. LFT, Crystal Embedding
   Dimitrios Pantazis     : SARC Basis sets
   Anastasios Papadopoulos: AUTO-CI, single reference methods and gradients
   Taras Petrenko         : pre 6.0 DFT Hessian and TD-DFT gradient, (ASA, deprecated), ECA, 1-Electron XAS/XES, NRVS
   Peter Pinski           : DLPNO-MP2, DLPNO-MP2 Gradient
   Christoph Reimann      : Effective Core Potentials
   Marius Retegan         : Local ZFS, SOC
   Christoph Riplinger    : Optimizer, TS searches, QM/MM, DLPNO-CCSD(T), (RO)-DLPNO pert. Triples
   Michael Roemelt        : Original ROCIS implementation
   Masaaki Saitow         : Open-shell DLPNO-CCSD energy and density
   Barbara Sandhoefer     : DKH picture change effects
   Kantharuban Sivalingam : CASSCF convergence/infrastructure, NEVPT2 and variants, FIC-MRCI
   Bernardo de Souza      : ESD, SOC TD-DFT
   Georgi Stoychev        : AutoAux, RI-MP2 NMR, DLPNO-MP2 response, X2C
   Van Anh Tran           : RI-MP2 g-tensors
   Willem Van den Heuvel  : Paramagnetic NMR
   Zikuan Wang            : NOTCH, Electric field optimization 
   Frank Wennmohs         : Technical directorship and infrastructure
   Hang Xu                : AUTO-CI-Response properties 


 We gratefully acknowledge several colleagues who have allowed us to
 interface, adapt or use parts of their codes:
   Stefan Grimme, W. Hujo, H. Kruse, P. Pracht,  : VdW corrections, initial TS optimization,
                  C. Bannwarth, S. Ehlert,         DFT functionals, gCP, sTDA/sTD-DF
                  L. Wittmann, M. Mueller
   Ed Valeev, F. Pavosevic, A. Kumar             : LibInt (2-el integral package), F12 methods
   Garnet Chan, S. Sharma, J. Yang, R. Olivares  : DMRG
   Ulf Ekstrom                                   : XCFun DFT Library
   Mihaly Kallay                                 : mrcc  (arbitrary order and MRCC methods)
   Frank Weinhold                                : gennbo (NPA and NBO analysis)
   Simon Mueller                                 : openCOSMO-RS
   Christopher J. Cramer and Donald G. Truhlar   : smd solvation model
   Lars Goerigk                                  : TD-DFT with DH, B97 family of functionals
   V. Asgeirsson, H. Jonsson                     : NEB implementation
   FAccTs GmbH                                   : IRC, NEB, NEB-TS, DLPNO-Multilevel, CI-OPT
                                                   MM, QMMM, 2- and 3-layer-ONIOM, Crystal-QMMM,
                                                   LR-CPCM, SF, NACMEs, symmetry and pop. for TD-DFT,
                                                   nearIR, NL-DFT gradient (VV10), updates on ESD,
                                                   ML-optimized integration grids, MBIS, APM,
                                                   GOAT, DOCKER, SOLVATOR, interface openCOSMO-RS
   S Lehtola, MJT Oliveira, MAL Marques          : LibXC Library
   Liviu Ungur et al                             : ANISO software


 Your calculation uses the libint2 library for the computation of 2-el integrals
 For citations please refer to: http://libint.valeyev.net

 Your ORCA version has been built with support for libXC version: 6.2.2
 For citations please refer to: https://libxc.gitlab.io

 This ORCA versions uses:
   CBLAS   interface :  Fast vector & matrix operations
   LAPACKE interface :  Fast linear algebra routines
   Shared memory     :  Shared parallel matrices


Warning: RI is on but no J-basis has been assigned. Assigning Def2/J (nothing to worry about!)
================================================================================

----- Orbital basis set information -----
Your calculation utilizes the basis: def2-TZVP
   F. Weigend and R. Ahlrichs, Phys. Chem. Chem. Phys. 7, 3297 (2005).

----- AuxJ basis set information -----
Your calculation utilizes the auxiliary basis: def2/J
   F. Weigend, Phys. Chem. Chem. Phys. 8, 1057 (2006).

================================================================================
                                        WARNINGS
                       Please study these warnings very carefully!
================================================================================


WARNING: Geometry Optimization
  ===> : Switching off AutoStart
         For restart on a previous wavefunction, please use MOREAD

================================================================================
                                       INPUT FILE
================================================================================
NAME = Dexketoprofen\Dexketoprofen_B3LYP_def2-TZVP\Dexketoprofen_B3LYP_def2-TZVP.orcainp
|  1> # ORCA input file
|  2> # 
|  3> !B3LYP def2-TZVP Opt CPCM(WATER)
|  4> * xyz 0 1
|  5>    H        1.09662        -0.20425         0.32676
|  6>    C        2.13797        -0.11108        -0.01052
|  7>    C        2.12649         0.62804        -1.35353
|  8>    C        2.82666         0.75101         1.05036
|  9>    O        3.42837         0.07530         2.05584
| 10>    O        2.79236         1.97380         1.05318
| 11>    C        2.71761        -1.51246        -0.17817
| 12>    C        1.93400        -2.64563         0.11349
| 13>    C        2.46764        -3.93628        -0.02637
| 14>    C        3.77114        -4.09904        -0.50532
| 15>    C        4.55448        -2.98406        -0.79480
| 16>    C        4.03583        -1.70072        -0.62371
| 17>    C        1.68733        -5.16375         0.28429
| 18>    O        1.87299        -6.17087        -0.39524
| 19>    C        0.70964        -5.21669         1.40278
| 20>    C        0.85415        -4.43205         2.55380
| 21>    C       -0.08941        -4.51477         3.57938
| 22>    C       -1.16344        -5.39791         3.47203
| 23>    C       -1.29213        -6.20776         2.34434
| 24>    C       -0.35568        -6.12155         1.31302
| 25>    H        1.60784         1.58944        -1.26613
| 26>    H        1.61662         0.04215        -2.12585
| 27>    H        3.14163         0.84360        -1.70681
| 28>    H        3.41398        -0.89696         1.96534
| 29>    H        0.90004        -2.51911         0.43007
| 30>    H        4.17798        -5.09810        -0.65507
| 31>    H        5.56968        -3.11822        -1.16231
| 32>    H        4.67199        -0.84709        -0.85704
| 33>    H        1.70284        -3.76706         2.68065
| 34>    H        0.01844        -3.89919         4.46945
| 35>    H       -1.89326        -5.46596         4.27487
| 36>    H       -2.11824        -6.91083         2.26952
| 37>    H       -0.45599        -6.76552         0.44094
| 38> *
| 39> 
| 40>                          ****END OF INPUT****
================================================================================

                       *****************************
                       * Geometry Optimization Run *
                       *****************************

Geometry optimization settings:
Update method            Update   .... BFGS
Choice of coordinates    CoordSys .... (2022) Redundant Internals
Initial Hessian          InHess   .... Almloef's Model
Max. no of cycles        MaxIter  .... 99

Convergence Tolerances:
Energy Change            TolE     ....  5.0000e-06 Eh
Max. Gradient            TolMAXG  ....  3.0000e-04 Eh/bohr
RMS Gradient             TolRMSG  ....  1.0000e-04 Eh/bohr
Max. Displacement        TolMAXD  ....  4.0000e-03 bohr
RMS Displacement         TolRMSD  ....  2.0000e-03 bohr
Strict Convergence                .... False

------------------------------------------------------------------------------
                        ORCA OPTIMIZATION COORDINATE SETUP
------------------------------------------------------------------------------

The optimization will be done in redundant internal coordinates (2022)
Making redundant internal coordinates   ...  (2022 redundants) done
Evaluating the initial hessian          ...  (Almloef) done
Evaluating the coordinates              ...  done
Calculating the B-matrix                .... done
Calculating the G-matrix                .... done
Diagonalizing the G-matrix              .... done
Small eigenvalue found = 3.170e-03
Small eigenvalue found = 1.297e-02
Small eigenvalue found = 1.621e-02
Small eigenvalue found = 2.759e-02
The first mode is                       ....   70
The number of degrees of freedom        ....   93

    -----------------------------------------------------------------
                    Redundant Internal Coordinates


    -----------------------------------------------------------------
         Definition                    Initial Value    Approx d2E/dq
    -----------------------------------------------------------------
      1. B(C   1,H   0)                  1.0986         0.348944   
      2. B(C   2,C   1)                  1.5330         0.369473   
      3. B(C   3,C   1)                  1.5307         0.372652   
      4. B(O   4,C   3)                  1.3526         0.641925   
      5. B(O   5,C   3)                  1.2233         1.032466   
      6. B(C   6,C   1)                  1.5258         0.379434   
      7. B(C   7,C   6)                  1.4083         0.584269   
      8. B(C   8,C   7)                  1.4036         0.594335   
      9. B(C   9,C   8)                  1.3982         0.606230   
     10. B(C  10,C   9)                  1.3931         0.617825   
     11. B(C  11,C  10)                  1.3947         0.614066   
     12. B(C  11,C   6)                  1.4042         0.593137   
     13. B(C  12,C   8)                  1.4873         0.437013   
     14. B(O  13,C  12)                  1.2290         1.010854   
     15. B(C  14,C  12)                  1.4865         0.438298   
     16. B(C  15,C  14)                  1.4005         0.601163   
     17. B(C  16,C  15)                  1.3961         0.611058   
     18. B(C  17,C  16)                  1.3946         0.614253   
     19. B(C  18,C  17)                  1.3943         0.614980   
     20. B(C  19,C  18)                  1.3957         0.611839   
     21. B(C  19,C  14)                  1.4006         0.600891   
     22. B(H  20,C   2)                  1.0959         0.352421   
     23. B(H  21,C   2)                  1.0953         0.353138   
     24. B(H  22,C   2)                  1.0963         0.351916   
     25. B(H  23,O   4)                  0.9766         0.489251   
     26. B(H  24,C   7)                  1.0887         0.361802   
     27. B(H  25,C   9)                  1.0891         0.361338   
     28. B(H  26,C  10)                  1.0880         0.362786   
     29. B(H  27,C  11)                  1.0899         0.360266   
     30. B(H  28,C  15)                  1.0856         0.365937   
     31. B(H  29,C  16)                  1.0876         0.363337   
     32. B(H  30,C  17)                  1.0871         0.363936   
     33. B(H  31,C  18)                  1.0874         0.363602   
     34. B(H  32,C  19)                  1.0887         0.361815   
     35. A(C   2,C   1,C   3)          109.8164         0.362514   
     36. A(C   3,C   1,C   6)          114.9940         0.364166   
     37. A(H   0,C   1,C   2)          107.6234         0.322065   
     38. A(H   0,C   1,C   3)          105.1573         0.322518   
     39. A(H   0,C   1,C   6)          108.4184         0.323473   
     40. A(C   2,C   1,C   6)          110.4516         0.363632   
     41. A(C   1,C   2,H  21)          111.3037         0.322697   
     42. A(H  20,C   2,H  22)          106.9450         0.288815   
     43. A(C   1,C   2,H  20)          110.8947         0.322589   
     44. A(H  20,C   2,H  21)          107.7699         0.288972   
     45. A(H  21,C   2,H  22)          107.9994         0.288907   
     46. A(C   1,C   2,H  22)          111.7273         0.322513   
     47. A(O   4,C   3,O   5)          120.6713         0.472947   
     48. A(C   1,C   3,O   5)          123.5022         0.431297   
     49. A(C   1,C   3,O   4)          115.7213         0.396390   
     50. A(C   3,O   4,H  23)          114.9548         0.368459   
     51. A(C   7,C   6,C  11)          118.6996         0.426065   
     52. A(C   1,C   6,C  11)          120.9747         0.394689   
     53. A(C   1,C   6,C   7)          120.3257         0.393649   
     54. A(C   8,C   7,H  24)          119.7953         0.350675   
     55. A(C   6,C   7,C   8)          120.5118         0.426219   
     56. A(C   6,C   7,H  24)          119.6808         0.349665   
     57. A(C   7,C   8,C   9)          119.7099         0.429047   
     58. A(C   9,C   8,C  12)          117.6836         0.406186   
     59. A(C   7,C   8,C  12)          122.5885         0.404767   
     60. A(C   8,C   9,C  10)          120.1483         0.432043   
     61. A(C  10,C   9,H  25)          119.7093         0.352904   
     62. A(C   8,C   9,H  25)          120.1423         0.351775   
     63. A(C   9,C  10,H  26)          119.7490         0.353143   
     64. A(C  11,C  10,H  26)          120.1254         0.352779   
     65. A(C   9,C  10,C  11)          120.1238         0.433042   
     66. A(C  10,C  11,H  27)          118.5137         0.352363   
     67. A(C   6,C  11,H  27)          120.7236         0.350304   
     68. A(C   6,C  11,C  10)          120.7571         0.429881   
     69. A(O  13,C  12,C  14)          119.0903         0.442405   
     70. A(C   8,C  12,C  14)          122.1150         0.383734   
     71. A(C   8,C  12,O  13)          118.7862         0.442171   
     72. A(C  15,C  14,C  19)          119.5448         0.429245   
     73. A(C  12,C  14,C  19)          118.3624         0.405762   
     74. A(C  12,C  14,C  15)          122.0444         0.405795   
     75. A(C  14,C  15,C  16)          120.0549         0.430540   
     76. A(C  16,C  15,H  28)          118.6088         0.353002   
     77. A(C  14,C  15,H  28)          121.3241         0.352028   
     78. A(C  15,C  16,C  17)          120.0979         0.432209   
     79. A(C  17,C  16,H  29)          119.8540         0.352887   
     80. A(C  15,C  16,H  29)          120.0439         0.352576   
     81. A(C  16,C  17,C  18)          120.0752         0.432706   
     82. A(C  18,C  17,H  30)          119.9317         0.353056   
     83. A(C  16,C  17,H  30)          119.9868         0.352986   
     84. A(C  17,C  18,C  19)          119.9883         0.432400   
     85. A(C  19,C  18,H  31)          119.9232         0.352696   
     86. A(C  17,C  18,H  31)          120.0875         0.353001   
     87. A(C  14,C  19,C  18)          120.1907         0.430604   
     88. A(C  18,C  19,H  32)          119.5736         0.352402   
     89. A(C  14,C  19,H  32)          120.2350         0.351327   
     90. D(H  21,C   2,C   1,C   6)     53.5300         0.010915   
     91. D(H  21,C   2,C   1,H   0)    -64.6524         0.010915   
     92. D(H  20,C   2,C   1,H   0)     55.3150         0.010915   
     93. D(H  21,C   2,C   1,C   3)   -178.6116         0.010915   
     94. D(H  20,C   2,C   1,C   6)    173.4974         0.010915   
     95. D(H  20,C   2,C   1,C   3)    -58.6442         0.010915   
     96. D(O   4,C   3,C   1,C   2)   -151.9883         0.010389   
     97. D(O   4,C   3,C   1,C   6)    -26.6943         0.010389   
     98. D(O   4,C   3,C   1,H   0)     92.4788         0.010389   
     99. D(O   5,C   3,C   1,C   2)     31.7265         0.010389   
    100. D(O   5,C   3,C   1,H   0)    -83.8065         0.010389   
    101. D(H  23,O   4,C   3,C   1)      4.1282         0.030392   
    102. D(H  23,O   4,C   3,O   5)   -179.4731         0.030392   
    103. D(C   7,C   6,C   1,H   0)     -1.0391         0.010745   
    104. D(C   7,C   6,C   1,C   2)   -118.7338         0.010745   
    105. D(C   7,C   6,C   1,C   3)    116.3033         0.010745   
    106. D(C  11,C   6,C   1,C   2)     61.2718         0.010745   
    107. D(C  11,C   6,C   1,H   0)    178.9666         0.010745   
    108. D(H  24,C   7,C   6,C  11)   -178.0886         0.023470   
    109. D(C   8,C   7,C   6,C  11)      0.6435         0.023470   
    110. D(H  24,C   7,C   6,C   1)      1.9169         0.023470   
    111. D(C   8,C   7,C   6,C   1)   -179.3510         0.023470   
    112. D(C  12,C   8,C   7,H  24)     -2.0246         0.024327   
    113. D(C  12,C   8,C   7,C   6)    179.2448         0.024327   
    114. D(C   9,C   8,C   7,H  24)    176.3959         0.024327   
    115. D(C   9,C   8,C   7,C   6)     -2.3348         0.024327   
    116. D(H  25,C   9,C   8,C  12)      0.9930         0.025364   
    117. D(H  25,C   9,C   8,C   7)   -177.5042         0.025364   
    118. D(C  10,C   9,C   8,C  12)   -179.0959         0.025364   
    119. D(C  10,C   9,C   8,C   7)      2.4069         0.025364   
    120. D(C  11,C  10,C   9,C   8)     -0.7943         0.026402   
    121. D(H  26,C  10,C   9,H  25)     -0.4016         0.026402   
    122. D(H  26,C  10,C   9,C   8)    179.6869         0.026402   
    123. D(C  11,C  10,C   9,H  25)    179.1172         0.026402   
    124. D(H  27,C  11,C  10,H  26)     -0.5525         0.026063   
    125. D(H  27,C  11,C  10,C   9)    179.9305         0.026063   
    126. D(C   6,C  11,C  10,H  26)    178.5956         0.026063   
    127. D(C   6,C  11,C  10,C   9)     -0.9213         0.026063   
    128. D(H  27,C  11,C   6,C   7)   -179.8830         0.024224   
    129. D(C  10,C  11,C   6,C   7)      0.9877         0.024224   
    130. D(C  10,C  11,C   6,C   1)   -179.0178         0.024224   
    131. D(H  27,C  11,C   6,C   1)      0.1114         0.024224   
    132. D(C  14,C  12,C   8,C   9)    145.7235         0.013036   
    133. D(C  14,C  12,C   8,C   7)    -35.8257         0.013036   
    134. D(O  13,C  12,C   8,C   9)    -33.2109         0.013036   
    135. D(O  13,C  12,C   8,C   7)    145.2398         0.013036   
    136. D(C  19,C  14,C  12,O  13)    -27.6903         0.013111   
    137. D(C  19,C  14,C  12,C   8)    153.3783         0.013111   
    138. D(C  15,C  14,C  12,O  13)    149.7664         0.013111   
    139. D(C  15,C  14,C  12,C   8)    -29.1649         0.013111   
    140. D(H  28,C  15,C  14,C  19)    176.1303         0.024919   
    141. D(H  28,C  15,C  14,C  12)     -1.2973         0.024919   
    142. D(C  16,C  15,C  14,C  19)     -2.5779         0.024919   
    143. D(C  16,C  15,C  14,C  12)    179.9945         0.024919   
    144. D(H  29,C  16,C  15,H  28)      1.7750         0.025793   
    145. D(H  29,C  16,C  15,C  14)   -179.4820         0.025793   
    146. D(C  17,C  16,C  15,H  28)   -177.4721         0.025793   
    147. D(C  17,C  16,C  15,C  14)      1.2709         0.025793   
    148. D(H  30,C  17,C  16,H  29)      0.3171         0.026079   
    149. D(H  30,C  17,C  16,C  15)    179.5656         0.026079   
    150. D(C  18,C  17,C  16,H  29)   -178.7729         0.026079   
    151. D(C  18,C  17,C  16,C  15)      0.4756         0.026079   
    152. D(C  19,C  18,C  17,C  16)     -0.8972         0.026145   
    153. D(H  31,C  18,C  17,H  30)     -0.3334         0.026145   
    154. D(H  31,C  18,C  17,C  16)    178.7571         0.026145   
    155. D(C  19,C  18,C  17,H  30)   -179.9877         0.026145   
    156. D(H  32,C  19,C  18,H  31)     -0.3833         0.025863   
    157. D(H  32,C  19,C  18,C  17)    179.2716         0.025863   
    158. D(C  14,C  19,C  18,H  31)    179.9174         0.025863   
    159. D(C  14,C  19,C  18,C  17)     -0.4277         0.025863   
    160. D(H  32,C  19,C  14,C  15)   -177.5382         0.024895   
    161. D(H  32,C  19,C  14,C  12)     -0.0161         0.024895   
    162. D(C  18,C  19,C  14,C  15)      2.1591         0.024895   
    163. D(C  18,C  19,C  14,C  12)    179.6813         0.024895   
    -----------------------------------------------------------------

Number of atoms                         .... 33
Number of degrees of freedom            .... 163


         *************************************************************
         *                GEOMETRY OPTIMIZATION CYCLE   1            *
         *************************************************************
---------------------------------
CARTESIAN COORDINATES (ANGSTROEM)
---------------------------------
  H      1.096620   -0.204250    0.326760
  C      2.137970   -0.111080   -0.010520
  C      2.126490    0.628040   -1.353530
  C      2.826660    0.751010    1.050360
  O      3.428370    0.075300    2.055840
  O      2.792360    1.973800    1.053180
  C      2.717610   -1.512460   -0.178170
  C      1.934000   -2.645630    0.113490
  C      2.467640   -3.936280   -0.026370
  C      3.771140   -4.099040   -0.505320
  C      4.554480   -2.984060   -0.794800
  C      4.035830   -1.700720   -0.623710
  C      1.687330   -5.163750    0.284290
  O      1.872990   -6.170870   -0.395240
  C      0.709640   -5.216690    1.402780
  C      0.854150   -4.432050    2.553800
  C     -0.089410   -4.514770    3.579380
  C     -1.163440   -5.397910    3.472030
  C     -1.292130   -6.207760    2.344340
  C     -0.355680   -6.121550    1.313020
  H      1.607840    1.589440   -1.266130
  H      1.616620    0.042150   -2.125850
  H      3.141630    0.843600   -1.706810
  H      3.413980   -0.896960    1.965340
  H      0.900040   -2.519110    0.430070
  H      4.177980   -5.098100   -0.655070
  H      5.569680   -3.118220   -1.162310
  H      4.671990   -0.847090   -0.857040
  H      1.702840   -3.767060    2.680650
  H      0.018440   -3.899190    4.469450
  H     -1.893260   -5.465960    4.274870
  H     -2.118240   -6.910830    2.269520
  H     -0.455990   -6.765520    0.440940

----------------------------
CARTESIAN COORDINATES (A.U.)
----------------------------
  NO LB      ZA    FRAG     MASS         X           Y           Z
   0 H     1.0000    0     1.008    2.072311   -0.385977    0.617487
   1 C     6.0000    0    12.011    4.040178   -0.209911   -0.019880
   2 C     6.0000    0    12.011    4.018484    1.186824   -2.557801
   3 C     6.0000    0    12.011    5.341613    1.419203    1.984893
   4 O     8.0000    0    15.999    6.478680    0.142296    3.884975
   5 O     8.0000    0    15.999    5.276796    3.729941    1.990222
   6 C     6.0000    0    12.011    5.135539   -2.858135   -0.336693
   7 C     6.0000    0    12.011    3.654730   -4.999516    0.214465
   8 C     6.0000    0    12.011    4.663164   -7.438491   -0.049832
   9 C     6.0000    0    12.011    7.126422   -7.746063   -0.954916
  10 C     6.0000    0    12.011    8.606720   -5.639056   -1.501954
  11 C     6.0000    0    12.011    7.626613   -3.213895   -1.178641
  12 C     6.0000    0    12.011    3.188592   -9.758073    0.537230
  13 O     8.0000    0    15.999    3.539438  -11.661254   -0.746895
  14 C     6.0000    0    12.011    1.341025   -9.858115    2.650870
  15 C     6.0000    0    12.011    1.614110   -8.375361    4.825983
  16 C     6.0000    0    12.011   -0.168960   -8.531679    6.764048
  17 C     6.0000    0    12.011   -2.198583  -10.200572    6.561186
  18 C     6.0000    0    12.011   -2.441772  -11.730966    4.430161
  19 C     6.0000    0    12.011   -0.672138  -11.568053    2.481248
  20 H     1.0000    0     1.008    3.038377    3.003606   -2.392639
  21 H     1.0000    0     1.008    3.054969    0.079652   -4.017274
  22 H     1.0000    0     1.008    5.936820    1.594173   -3.225403
  23 H     1.0000    0     1.008    6.451487   -1.695009    3.713954
  24 H     1.0000    0     1.008    1.700829   -4.760428    0.812715
  25 H     1.0000    0     1.008    7.895238   -9.634013   -1.237903
  26 H     1.0000    0     1.008   10.525170   -5.892582   -2.196448
  27 H     1.0000    0     1.008    8.828782   -1.600768   -1.619571
  28 H     1.0000    0     1.008    3.217901   -7.118712    5.065694
  29 H     1.0000    0     1.008    0.034847   -7.368401    8.446036
  30 H     1.0000    0     1.008   -3.577743  -10.329167    8.078334
  31 H     1.0000    0     1.008   -4.002893  -13.059576    4.288771
  32 H     1.0000    0     1.008   -0.861696  -12.784980    0.833256

--------------------------------
INTERNAL COORDINATES (ANGSTROEM)
--------------------------------
 H      0   0   0     0.000000000000     0.00000000     0.00000000
 C      1   0   0     1.098566461258     0.00000000     0.00000000
 C      2   1   0     1.533005552795   107.62340938     0.00000000
 C      2   1   3     1.530672877724   105.15733455   117.03767684
 O      4   2   1     1.352637778047   115.72133848    92.47875254
 O      4   2   1     1.223274223754   123.50219437   276.19352862
 C      2   1   3     1.525763728924   108.41839138   240.51438383
 C      7   2   1     1.408255813622   120.32570271   358.96093587
 C      8   7   2     1.403606031513   120.51177098   180.64899473
 C      9   8   7     1.398211775841   119.70992143   357.66522722
 C     10   9   8     1.393054423345   120.14832190     2.40693947
 C     11  10   9     1.394715442734   120.12384667   359.20570594
 C      9   8   7     1.487304922536   122.58853406   179.24475891
 O     13   9   8     1.229032689110   118.78621433   145.23984250
 C     13   9   8     1.486506057774   122.11502274   324.17428102
 C     15  13   9     1.400496379895   122.04444038   330.83514153
 C     16  15  13     1.396052437554   120.05485425   179.99449155
 C     17  16  15     1.394632827306   120.09787136     1.27089464
 C     18  17  16     1.394310895998   120.07520224     0.47561130
 C     19  18  17     1.395704735609   119.98834559   359.10278352
 H      3   2   1     1.095867940265   110.89471659    55.31497535
 H      3   2   1     1.095313969326   111.30368068   295.34758165
 H      3   2   1     1.096258223048   111.72730933   174.52150211
 H      5   4   2     0.976568906785   114.95483919     4.12821327
 H      8   7   2     1.088716440769   119.68079471     1.91685859
 H     10   9   8     1.089065990517   120.14231725   182.49583062
 H     11  10   9     1.087976813034   119.74898539   179.68694503
 H     12  11  10     1.089874585170   118.51374391   179.93051835
 H     16  15  13     1.085623018686   121.32409245   358.70268205
 H     17  16  15     1.087563774590   120.04385632   180.51797952
 H     18  17  16     1.087115495474   119.98681805   179.56561602
 H     19  18  17     1.087365251146   120.08750906   178.75711314
 H     20  19  18     1.088707023675   119.57356025   179.27163915

---------------------------
INTERNAL COORDINATES (A.U.)
---------------------------
 H      0   0   0     0.000000000000     0.00000000     0.00000000
 C      1   0   0     2.075989751688     0.00000000     0.00000000
 C      2   1   0     2.896960656563   107.62340938     0.00000000
 C      2   1   3     2.892552539520   105.15733455   117.03767684
 O      4   2   1     2.556114958905   115.72133848    92.47875254
 O      4   2   1     2.311653269579   123.50219437   276.19352862
 C      2   1   3     2.883275592737   108.41839138   240.51438383
 C      7   2   1     2.661217814248   120.32570271   358.96093587
 C      8   7   2     2.652430999480   120.51177098   180.64899473
 C      9   8   7     2.642237333563   119.70992143   357.66522722
 C     10   9   8     2.632491349769   120.14832190     2.40693947
 C     11  10   9     2.635630221518   120.12384667   359.20570594
 C      9   8   7     2.810598981226   122.58853406   179.24475891
 O     13   9   8     2.322535192054   118.78621433   145.23984250
 C     13   9   8     2.809089345609   122.11502274   324.17428102
 C     15  13   9     2.646554609550   122.04444038   330.83514153
 C     16  15  13     2.638156775570   120.05485425   179.99449155
 C     17  16  15     2.635474100985   120.09787136     1.27089464
 C     18  17  16     2.634865738979   120.07520224     0.47561130
 C     19  18  17     2.637499714117   119.98834559   359.10278352
 H      3   2   1     2.070890286045   110.89471659    55.31497535
 H      3   2   1     2.069843432684   111.30368068   295.34758165
 H      3   2   1     2.071627813620   111.72730933   174.52150211
 H      5   4   2     1.845447784727   114.95483919     4.12821327
 H      8   7   2     2.057375910550   119.68079471     1.91685859
 H     10   9   8     2.058036463844   120.14231725   182.49583062
 H     11  10   9     2.055978216691   119.74898539   179.68694503
 H     12  11  10     2.059564486293   118.51374391   179.93051835
 H     16  15  13     2.051530189997   121.32409245   358.70268205
 H     17  16  15     2.055197687148   120.04385632   180.51797952
 H     18  17  16     2.054350562388   119.98681805   179.56561602
 H     19  18  17     2.054822532209   120.08750906   178.75711314
 H     20  19  18     2.057358114823   119.57356025   179.27163915

---------------------
BASIS SET INFORMATION
---------------------
There are 3 groups of distinct atoms

 Group   1 Type H   : 5s1p contracted to 3s1p pattern {311/1}
 Group   2 Type C   : 11s6p2d1f contracted to 5s3p2d1f pattern {62111/411/11/1}
 Group   3 Type O   : 11s6p2d1f contracted to 5s3p2d1f pattern {62111/411/11/1}

Atom   0H    basis set group =>   1
Atom   1C    basis set group =>   2
Atom   2C    basis set group =>   2
Atom   3C    basis set group =>   2
Atom   4O    basis set group =>   3
Atom   5O    basis set group =>   3
Atom   6C    basis set group =>   2
Atom   7C    basis set group =>   2
Atom   8C    basis set group =>   2
Atom   9C    basis set group =>   2
Atom  10C    basis set group =>   2
Atom  11C    basis set group =>   2
Atom  12C    basis set group =>   2
Atom  13O    basis set group =>   3
Atom  14C    basis set group =>   2
Atom  15C    basis set group =>   2
Atom  16C    basis set group =>   2
Atom  17C    basis set group =>   2
Atom  18C    basis set group =>   2
Atom  19C    basis set group =>   2
Atom  20H    basis set group =>   1
Atom  21H    basis set group =>   1
Atom  22H    basis set group =>   1
Atom  23H    basis set group =>   1
Atom  24H    basis set group =>   1
Atom  25H    basis set group =>   1
Atom  26H    basis set group =>   1
Atom  27H    basis set group =>   1
Atom  28H    basis set group =>   1
Atom  29H    basis set group =>   1
Atom  30H    basis set group =>   1
Atom  31H    basis set group =>   1
Atom  32H    basis set group =>   1
---------------------------------
AUXILIARY/J BASIS SET INFORMATION
---------------------------------
There are 3 groups of distinct atoms

 Group   1 Type H   : 5s2p1d contracted to 3s1p1d pattern {311/2/1}
 Group   2 Type C   : 12s5p4d2f1g contracted to 6s4p3d1f1g pattern {711111/2111/211/2/1}
 Group   3 Type O   : 12s5p4d2f1g contracted to 6s4p3d1f1g pattern {711111/2111/211/2/1}

Atom   0H    basis set group =>   1
Atom   1C    basis set group =>   2
Atom   2C    basis set group =>   2
Atom   3C    basis set group =>   2
Atom   4O    basis set group =>   3
Atom   5O    basis set group =>   3
Atom   6C    basis set group =>   2
Atom   7C    basis set group =>   2
Atom   8C    basis set group =>   2
Atom   9C    basis set group =>   2
Atom  10C    basis set group =>   2
Atom  11C    basis set group =>   2
Atom  12C    basis set group =>   2
Atom  13O    basis set group =>   3
Atom  14C    basis set group =>   2
Atom  15C    basis set group =>   2
Atom  16C    basis set group =>   2
Atom  17C    basis set group =>   2
Atom  18C    basis set group =>   2
Atom  19C    basis set group =>   2
Atom  20H    basis set group =>   1
Atom  21H    basis set group =>   1
Atom  22H    basis set group =>   1
Atom  23H    basis set group =>   1
Atom  24H    basis set group =>   1
Atom  25H    basis set group =>   1
Atom  26H    basis set group =>   1
Atom  27H    basis set group =>   1
Atom  28H    basis set group =>   1
Atom  29H    basis set group =>   1
Atom  30H    basis set group =>   1
Atom  31H    basis set group =>   1
Atom  32H    basis set group =>   1
------------------------------------------------------------------------------
                             ORCA STARTUP CALCULATIONS
                           -- RI-GTO INTEGRALS CHOSEN --
------------------------------------------------------------------------------
------------------------------------------------------------------------------
                   ___                                                        
                  /   \      - P O W E R E D   B Y -                         
                 /     \                                                     
                 |  |  |   _    _      __       _____    __    __             
                 |  |  |  | |  | |    /  \     |  _  \  |  |  /  |          
                  \  \/   | |  | |   /    \    | | | |  |  | /  /          
                 / \  \   | |__| |  /  /\  \   | |_| |  |  |/  /          
                |  |  |   |  __  | /  /__\  \  |    /   |      \           
                |  |  |   | |  | | |   __   |  |    \   |  |\   \          
                \     /   | |  | | |  |  |  |  | |\  \  |  | \   \       
                 \___/    |_|  |_| |__|  |__|  |_| \__\ |__|  \__/        
                                                                              
                      - O R C A' S   B I G   F R I E N D -                    
                                      &                                       
                       - I N T E G R A L  F E E D E R -                       
                                                                              
 v1 FN, 2020, v2 2021, v3 2022-2024                                           
------------------------------------------------------------------------------


----------------------
SHARK INTEGRAL PACKAGE
----------------------

Number of atoms                             ...     33
Number of basis functions                   ...    673
Number of shells                            ...    265
Maximum angular momentum                    ...      3
Integral batch strategy                     ... SHARK/LIBINT Hybrid
RI-J (if used) integral strategy            ... SPLIT-RIJ (Revised 2003 algorithm where possible)
Printlevel                                  ...      1
Contraction scheme used                     ... SEGMENTED contraction
Prescreening option                         ... SCHWARTZ
   Thresh                                   ... 2.500e-11
   Tcut                                     ... 2.500e-12
   Tpresel                                  ... 2.500e-12 
Coulomb Range Separation                    ... NOT USED
Exchange Range Separation                   ... NOT USED
Multipole approximations                    ... NOT USED
Finite Nucleus Model                        ... NOT USED
CABS basis                                  ... NOT available
Auxiliary Coulomb fitting basis             ... AVAILABLE
   # of basis functions in Aux-J            ...   1085
   # of shells in Aux-J                     ...    355
   Maximum angular momentum in Aux-J        ...      4
Auxiliary J/K fitting basis                 ... NOT available
Auxiliary Correlation fitting basis         ... NOT available
Auxiliary 'external' fitting basis          ... NOT available

Checking pre-screening integrals            ... done (  0.0 sec) Dimension = 265
Check shell pair data                       ... done (  0.0 sec)
Shell pair information
Shell pair cut-off parameter TPreSel        ...   2.5e-12
Total number of shell pairs                 ...     35245
Shell pairs after pre-screening             ...     25638
Total number of primitive shell pairs       ...    108340
Primitive shell pairs kept                  ...     53361
          la=0 lb=0:   6636 shell pairs
          la=1 lb=0:   7378 shell pairs
          la=1 lb=1:   2077 shell pairs
          la=2 lb=0:   3668 shell pairs
          la=2 lb=1:   2049 shell pairs
          la=2 lb=2:    525 shell pairs
          la=3 lb=0:   1724 shell pairs
          la=3 lb=1:    987 shell pairs
          la=3 lb=2:    475 shell pairs
          la=3 lb=3:    119 shell pairs

Calculating one electron integrals          ... done (  0.1 sec)
Calculating RI/J V-Matrix + Cholesky decomp.... done (  0.0 sec)
Calculating Nuclear repulsion               ... done (  0.0 sec) ENN=   1312.841986003011 Eh

Diagonalization of the overlap matrix:
Smallest eigenvalue                        ... 6.731e-06
Time for diagonalization                   ...    0.032 sec
Threshold for overlap eigenvalues          ... 1.000e-07
Number of eigenvalues below threshold      ... 0
Time for construction of square roots      ...    0.024 sec
Total time needed                          ...    0.058 sec

-------------------
DFT GRID GENERATION
-------------------

General Integration Accuracy     IntAcc      ... 4.388
Radial Grid Type                 RadialGrid  ... OptM3 with GC (2021)
Angular Grid (max. ang.)         AngularGrid ... 4 (Lebedev-302)
Angular grid pruning method      GridPruning ... 4 (adaptive)
Weight generation scheme         WeightScheme... mBecke (2022)
Basis function cutoff            BFCut       ... 1.0000e-11
Integration weight cutoff        WCut        ... 1.0000e-14
Partially contracted basis set               ... off
Rotationally invariant grid construction     ... off
Angular grids for H and He will be reduced by one unit

Total number of grid points                  ...   158473
Total number of batches                      ...     2493
Average number of points per batch           ...       63
Average number of grid points per atom       ...     4802

--------------------
COSX GRID GENERATION
--------------------

GRIDX 1
-------
General Integration Accuracy     IntAcc      ... 3.816
Radial Grid Type                 RadialGrid  ... OptM3 with GC (2021)
Angular Grid (max. ang.)         AngularGrid ... 1 (Lebedev-50)
Angular grid pruning method      GridPruning ... 4 (adaptive)
Weight generation scheme         WeightScheme... mBecke (2022)
Basis function cutoff            BFCut       ... 1.0000e-11
Integration weight cutoff        WCut        ... 1.0000e-14
Partially contracted basis set               ... on
Rotationally invariant grid construction     ... off
Angular grids for H and He will be reduced by one unit

Total number of grid points                  ...    20106
Total number of batches                      ...      174
Average number of points per batch           ...      115
Average number of grid points per atom       ...      609
UseSFitting                                  ... on

GRIDX 2
-------
General Integration Accuracy     IntAcc      ... 4.020
Radial Grid Type                 RadialGrid  ... OptM3 with GC (2021)
Angular Grid (max. ang.)         AngularGrid ... 2 (Lebedev-110)
Angular grid pruning method      GridPruning ... 4 (adaptive)
Weight generation scheme         WeightScheme... mBecke (2022)
Basis function cutoff            BFCut       ... 1.0000e-11
Integration weight cutoff        WCut        ... 1.0000e-14
Partially contracted basis set               ... on
Rotationally invariant grid construction     ... off
Angular grids for H and He will be reduced by one unit

Total number of grid points                  ...    43947
Total number of batches                      ...      359
Average number of points per batch           ...      122
Average number of grid points per atom       ...     1332
UseSFitting                                  ... on

GRIDX 3
-------
General Integration Accuracy     IntAcc      ... 4.338
Radial Grid Type                 RadialGrid  ... OptM3 with GC (2021)
Angular Grid (max. ang.)         AngularGrid ... 3 (Lebedev-194)
Angular grid pruning method      GridPruning ... 4 (adaptive)
Weight generation scheme         WeightScheme... mBecke (2022)
Basis function cutoff            BFCut       ... 1.0000e-11
Integration weight cutoff        WCut        ... 1.0000e-14
Partially contracted basis set               ... on
Rotationally invariant grid construction     ... off
Angular grids for H and He will be reduced by one unit

Total number of grid points                  ...    96276
Total number of batches                      ...      769
Average number of points per batch           ...      125
Average number of grid points per atom       ...     2917
UseSFitting                                  ... on
Initializing property integral containers    ... done (  0.0 sec)

SHARK setup successfully completed in   3.7 seconds

Maximum memory used throughout the entire STARTUP-calculation: 114.3 MB
-------------------------------------------------------------------------------
                                 ORCA GUESS
                   Start orbitals & Density for SCF / CASSCF
-------------------------------------------------------------------------------

------------
SCF SETTINGS
------------
Hamiltonian:
 Density Functional     Method          .... DFT(GTOs)
 Exchange Functional    Exchange        .... B88
   X-Alpha parameter    XAlpha          ....  0.666667
   Becke's b parameter  XBeta           ....  0.004200
 Correlation Functional Correlation     .... LYP
 LDA part of GGA corr.  LDAOpt          .... VWN-5
 Gradients option       PostSCFGGA      .... off
 Hybrid DFT is turned on
   Fraction HF Exchange ScalHFX         ....  0.200000
   Scaling of DF-GGA-X  ScalDFX         ....  0.720000
   Scaling of DF-GGA-C  ScalDFC         ....  0.810000
   Scaling of DF-LDA-C  ScalLDAC        ....  1.000000
   Perturbative correction              ....  0.000000
   NL short-range parameter             ....  4.800000
 RI-approximation to the Coulomb term is turned on
   Number of AuxJ basis functions       .... 1085
   RIJ-COSX (HFX calculated with COS-X)).... on


General Settings:
 Integral files         IntName         .... Dexketoprofen\Dexketoprofen_B3LYP_def2-TZVP\Dexketoprofen_B3LYP_def2-TZVP.orcainp
 Hartree-Fock type      HFTyp           .... RHF
 Total Charge           Charge          ....    0
 Multiplicity           Mult            ....    1
 Number of Electrons    NEL             ....  134
 Basis Dimension        Dim             ....  673
 Nuclear Repulsion      ENuc            ....   1312.8419860030 Eh

Convergence Acceleration:
 AO-DIIS                CNVDIIS         .... on
   Start iteration      DIISMaxIt       ....    12
   Startup error        DIISStart       ....  0.200000
   # of expansion vecs  DIISMaxEq       ....     5
   Bias factor          DIISBfac        ....   1.050
   Max. coefficient     DIISMaxC        ....  10.000
 MO-DIIS                CNVKDIIS        .... off
 Trust-Rad. Augm. Hess. CNVTRAH         .... auto
   Auto Start mean grad. ratio tolernc. ....  1.125000
   Auto Start start iteration           ....    50
   Auto Start num. interpolation iter.  ....    10
   Max. Number of Micro iterations      ....    24
   Max. Number of Macro iterations      .... Maxiter - #DIIS iter
   Number of Davidson start vectors     ....     2
   Converg. threshold    (grad. norm)   ....   1.000e-05
   Grad. Scal. Fac. for Micro threshold ....   0.100
   Minimum threshold for Micro iter.    ....   1.000e-02
   NR start threshold (gradient norm)   ....   1.000e-04
   Initial trust radius                 ....   0.400
   Minimum AH scaling param. (alpha)    ....   1.000
   Maximum AH scaling param. (alpha)    .... 1000.000
   Quad. conv. algorithm                .... NR
   White noise on init. David. guess    .... on
   Maximum white noise                  ....   0.010
   Pseudo random numbers                .... off
   Inactive MOs                         .... canonical
   Orbital update algorithm             .... Taylor
   Preconditioner                       .... Diag
   Full preconditioner red. dimension   ....   250
 SOSCF                  CNVSOSCF        .... on
   Start iteration      SOSCFMaxIt      ....   150
   Startup grad/error   SOSCFStart      ....  0.003300
   Hessian update       SOSCFHessUp     .... L-BFGS
 Level Shifting         CNVShift        .... on
   Level shift para.    LevelShift      ....    0.2500
   Turn off err/grad.   ShiftErr        ....    0.0010
 Zerner damping         CNVZerner       .... off
 Static damping         CNVDamp         .... on
   Fraction old density DampFac         ....    0.7000
   Max. Damping (<1)    DampMax         ....    0.9800
   Min. Damping (>=0)   DampMin         ....    0.0000
   Turn off err/grad.   DampErr         ....    0.1000

SCF Procedure:
 Maximum # iterations   MaxIter         ....   125
 SCF integral mode      SCFMode         .... Direct
   Integral package                     .... SHARK and LIBINT hybrid scheme
 Reset frequency        DirectResetFreq ....    20
 Integral Threshold     Thresh          ....  2.500e-11 Eh
 Primitive CutOff       TCut            ....  2.500e-12 Eh

Convergence Tolerance:
 Convergence Check Mode ConvCheckMode   .... Total+1el-Energy
 Convergence forced     ConvForced      .... 0
 Energy Change          TolE            ....  1.000e-08 Eh
 1-El. energy change                    ....  1.000e-05 Eh
 Orbital Gradient       TolG            ....  1.000e-05
 Orbital Rotation angle TolX            ....  1.000e-05
 DIIS Error             TolErr          ....  5.000e-07

------------------------------
INITIAL GUESS: MODEL POTENTIAL
------------------------------
Loading Hartree-Fock densities                     ... done
Calculating cut-offs                               ... done
Initializing the effective Hamiltonian             ... done
Setting up the integral package (SHARK)            ... done
Starting the Coulomb interaction                   ... done (   0.9 sec)
Making the grid                                    ... done (   0.3 sec)
Mapping shells                                     ... done
Starting the XC term evaluation                    ... done (   1.0 sec)
  promolecular density results
     # of electrons  =    133.983571179
     EX              =   -110.978978938
     EC              =     -4.556840569
     EX+EC           =   -115.535819507
Transforming the Hamiltonian                       ... done (   0.0 sec)
Diagonalizing the Hamiltonian                      ... done (   0.0 sec)
Back transforming the eigenvectors                 ... done (   0.0 sec)
Now organizing SCF variables                       ... done
                      ------------------
                      INITIAL GUESS DONE (   2.3 sec)
                      ------------------
             **** ENERGY FILE WAS UPDATED (Dexketoprofen\Dexketoprofen_B3LYP_def2-TZVP\Dexketoprofen_B3LYP_def2-TZVP.orcainp.en.tmp) ****
Finished Guess after   2.5 sec
Maximum memory used throughout the entire GUESS-calculation: 84.3 MB

-------------------------------------------------------------------------------------------
                                      ORCA LEAN-SCF
                              memory conserving SCF solver
-------------------------------------------------------------------------------------------

--------------------
CPCM SOLVATION MODEL
--------------------
CPCM parameters:
  Epsilon                                         ...      80.1510
  Refrac                                          ...       1.3328
  Rsolv                                           ...       1.3000
  Surface type                                    ... GAUSSIAN VDW
  Discretization scheme                           ... Constant charge density
    Threshold for H atoms                         ...       5.0000 (charges/Ang^2)
    Threshold for non-H atoms                     ...       5.0000 (charges/Ang^2)
  Epsilon function type                           ...         CPCM
Solvent:                                          ... WATER
Radii:
  Scheme                                          ... Element-dependent radii
  Radius for H  used is    2.4944 Bohr (=   1.3200 Ang.)
  Radius for C  used is    3.8550 Bohr (=   2.0400 Ang.)
  Radius for O  used is    3.4469 Bohr (=   1.8240 Ang.)
Calculating surface                               ...        done! (  0.0s)
Cavity surface points                             ...         2957
Cavity Volume                                     ...    2100.0638
Cavity Surface-area                               ...    1086.2172
Calculating surface distance matrix               ...        done! (  0.0s)
Performing Cholesky decomposition & store         ...        done! (  0.2s)
Overall time for CPCM initialization              ...                 0.2s

----------------------------------------D-I-I-S--------------------------------------------
Iteration    Energy (Eh)           Delta-E    RMSDP     MaxDP     DIISErr   Damp  Time(sec)
-------------------------------------------------------------------------------------------
               ***  Starting incremental Fock matrix formation  ***
    1    -843.1424989545089375     0.00e+00  1.58e-03  2.40e-01  3.03e-01  0.700  32.8
    2    -843.3908310619917756    -2.48e-01  1.30e-03  2.05e-01  1.15e-01  0.700  17.0
                               ***Turning on AO-DIIS***
    3    -843.4854186966799716    -9.46e-02  4.64e-04  3.83e-02  3.77e-02  0.700  16.6
    4    -843.5442355320615206    -5.88e-02  6.63e-04  2.89e-02  1.77e-02  0.000  15.8
    5    -843.6735408515842209    -1.29e-01  2.85e-04  3.81e-02  6.28e-03  0.000  16.2
                              *** Initializing SOSCF ***
---------------------------------------S-O-S-C-F--------------------------------------
Iteration    Energy (Eh)           Delta-E    RMSDP     MaxDP     MaxGrad    Time(sec)
--------------------------------------------------------------------------------------
    6    -843.6742847345776681    -7.44e-04  8.71e-05  9.60e-03  1.59e-03    15.0
               *** Restarting incremental Fock matrix formation ***
    7    -843.6743152526523772    -3.05e-05  8.16e-05  7.47e-03  3.74e-04    32.7
    8    -843.6743084237286894     6.83e-06  1.98e-05  1.76e-03  7.81e-04    23.7
    9    -843.6743219193363075    -1.35e-05  1.00e-05  6.89e-04  8.05e-05    20.7
   10    -843.6743216461013617     2.73e-07  3.39e-06  2.59e-04  9.27e-05    19.4
   11    -843.6743221708256897    -5.25e-07  3.31e-06  2.66e-04  1.24e-05    17.1
   12    -843.6743221802707922    -9.45e-09  1.31e-06  1.24e-04  1.26e-05    16.0
                 **** Energy Check signals convergence ****

               *****************************************************
               *                     SUCCESS                       *
               *           SCF CONVERGED AFTER  12 CYCLES          *
               *****************************************************

Recomputing exchange energy using gridx3       ... done (   52.756 sec)
Old exchange energy                            :    -22.523862571 Eh
New exchange energy                            :    -22.523845350 Eh
Exchange energy change after final integration :      0.000017221 Eh
Total energy after final integration           :   -843.674304960 Eh
             **** ENERGY FILE WAS UPDATED (Dexketoprofen\Dexketoprofen_B3LYP_def2-TZVP\Dexketoprofen_B3LYP_def2-TZVP.orcainp.en.tmp) ****

----------------
TOTAL SCF ENERGY
----------------

Total Energy       :       -843.67430495957808 Eh          -22957.54498 eV

Components:
Nuclear Repulsion  :       1312.84198600301079 Eh           35724.24662 eV
Electronic Energy  :      -2156.48594368220802 Eh          -58680.96581 eV
One Electron Energy:      -3751.81293731678716 Eh         -102092.02028 eV
Two Electron Energy:       1595.32699363457891 Eh           43411.05447 eV
CPCM Dielectric    :         -0.03036450107353 Eh              -0.82626 eV

Virial components:
Potential Energy   :      -1683.29133455647479 Eh          -45804.68588 eV
Kinetic Energy     :        839.61702959689660 Eh           22847.14090 eV
Virial Ratio       :          2.00483229284264

DFT components:
N(Alpha)           :       67.000012215848 electrons
N(Beta)            :       67.000012215848 electrons
N(Total)           :      134.000024431697 electrons
E(X)               :      -89.540413324065 Eh       
E(C)               :       -5.377544995417 Eh       
E(XC)              :      -94.917958319482 Eh       

CPCM Solvation Model Properties:
Surface-charge          :         -0.03163244121606
Corrected charge        :         -0.00000000000000
Outlying charge corr.   :          0.00005558530388 Eh               0.00151 eV
Free-energy (cav+disp)  :  This term is not implemented in the current solvation scheme

---------------
SCF CONVERGENCE
---------------

  Last Energy change         ...    9.4451e-09  Tolerance :   1.0000e-08
  Last MAX-Density change    ...    1.2382e-04  Tolerance :   1.0000e-07
  Last RMS-Density change    ...    1.3053e-06  Tolerance :   5.0000e-09
  Last DIIS Error            ...    1.5924e-03  Tolerance :   5.0000e-07
  Last Orbital Gradient      ...    1.2615e-05  Tolerance :   1.0000e-05
  Last Orbital Rotation      ...    1.9833e-05  Tolerance :   1.0000e-05


----------------
ORBITAL ENERGIES
----------------

  NO   OCC          E(Eh)            E(eV) 
   0   2.0000     -19.179162      -521.8915 
   1   2.0000     -19.124775      -520.4116 
   2   2.0000     -19.119373      -520.2646 
   3   2.0000     -10.318121      -280.7703 
   4   2.0000     -10.269983      -279.4605 
   5   2.0000     -10.202849      -277.6336 
   6   2.0000     -10.200183      -277.5611 
   7   2.0000     -10.194803      -277.4147 
   8   2.0000     -10.192583      -277.3543 
   9   2.0000     -10.192291      -277.3463 
  10   2.0000     -10.188853      -277.2528 
  11   2.0000     -10.187503      -277.2160 
  12   2.0000     -10.186991      -277.2021 
  13   2.0000     -10.185733      -277.1679 
  14   2.0000     -10.184385      -277.1312 
  15   2.0000     -10.184215      -277.1266 
  16   2.0000     -10.181481      -277.0522 
  17   2.0000     -10.181376      -277.0493 
  18   2.0000     -10.164313      -276.5850 
  19   2.0000      -1.105890       -30.0928 
  20   2.0000      -1.047294       -28.4983 
  21   2.0000      -1.025640       -27.9091 
  22   2.0000      -0.875904       -23.8345 
  23   2.0000      -0.866052       -23.5665 
  24   2.0000      -0.812514       -22.1096 
  25   2.0000      -0.780324       -21.2337 
  26   2.0000      -0.758076       -20.6283 
  27   2.0000      -0.753193       -20.4954 
  28   2.0000      -0.740085       -20.1387 
  29   2.0000      -0.665869       -18.1192 
  30   2.0000      -0.659628       -17.9494 
  31   2.0000      -0.626098       -17.0370 
  32   2.0000      -0.624232       -16.9862 
  33   2.0000      -0.613281       -16.6882 
  34   2.0000      -0.599406       -16.3107 
  35   2.0000      -0.563643       -15.3375 
  36   2.0000      -0.538783       -14.6610 
  37   2.0000      -0.512711       -13.9516 
  38   2.0000      -0.506315       -13.7775 
  39   2.0000      -0.484852       -13.1935 
  40   2.0000      -0.476761       -12.9733 
  41   2.0000      -0.470244       -12.7960 
  42   2.0000      -0.466575       -12.6961 
  43   2.0000      -0.456953       -12.4343 
  44   2.0000      -0.447105       -12.1663 
  45   2.0000      -0.440438       -11.9849 
  46   2.0000      -0.433946       -11.8083 
  47   2.0000      -0.430632       -11.7181 
  48   2.0000      -0.428834       -11.6692 
  49   2.0000      -0.415561       -11.3080 
  50   2.0000      -0.406734       -11.0678 
  51   2.0000      -0.396132       -10.7793 
  52   2.0000      -0.378367       -10.2959 
  53   2.0000      -0.373733       -10.1698 
  54   2.0000      -0.368280       -10.0214 
  55   2.0000      -0.364233        -9.9113 
  56   2.0000      -0.360715        -9.8156 
  57   2.0000      -0.356671        -9.7055 
  58   2.0000      -0.350423        -9.5355 
  59   2.0000      -0.344994        -9.3878 
  60   2.0000      -0.332562        -9.0495 
  61   2.0000      -0.297969        -8.1082 
  62   2.0000      -0.276326        -7.5192 
  63   2.0000      -0.271140        -7.3781 
  64   2.0000      -0.265465        -7.2237 
  65   2.0000      -0.263262        -7.1637 
  66   2.0000      -0.256608        -6.9827 
  67   0.0000      -0.078503        -2.1362 
  68   0.0000      -0.031981        -0.8703 
  69   0.0000      -0.028904        -0.7865 
  70   0.0000      -0.018089        -0.4922 
  71   0.0000      -0.010972        -0.2986 
  72   0.0000       0.031303         0.8518 
  73   0.0000       0.035172         0.9571 
  74   0.0000       0.058831         1.6009 
  75   0.0000       0.062989         1.7140 
  76   0.0000       0.069493         1.8910 
  77   0.0000       0.072493         1.9726 
*Only the first 10 virtual orbitals were printed.

                    ********************************
                    * MULLIKEN POPULATION ANALYSIS *
                    ********************************

-----------------------
MULLIKEN ATOMIC CHARGES
-----------------------
   0 H :    0.130745
   1 C :    0.024738
   2 C :   -0.394024
   3 C :    0.299640
   4 O :   -0.373002
   5 O :   -0.385521
   6 C :    0.005072
   7 C :   -0.311505
   8 C :    0.183531
   9 C :   -0.187266
  10 C :   -0.129546
  11 C :   -0.160341
  12 C :    0.233688
  13 O :   -0.389182
  14 C :    0.116595
  15 C :   -0.222154
  16 C :   -0.133472
  17 C :   -0.125745
  18 C :   -0.134907
  19 C :   -0.193149
  20 H :    0.129822
  21 H :    0.134283
  22 H :    0.131174
  23 H :    0.378446
  24 H :    0.163732
  25 H :    0.144282
  26 H :    0.148666
  27 H :    0.155953
  28 H :    0.171446
  29 H :    0.148071
  30 H :    0.149819
  31 H :    0.147631
  32 H :    0.142480
Sum of atomic charges:   -0.0000000

--------------------------------
MULLIKEN REDUCED ORBITAL CHARGES
--------------------------------
  0 H s       :     0.846423  s :     0.846423
      pz      :     0.005158  p :     0.022832
      px      :     0.013501
      py      :     0.004174

  1 C s       :     3.107704  s :     3.107704
      pz      :     0.910987  p :     2.743886
      px      :     0.969809
      py      :     0.863090
      dz2     :     0.020865  d :     0.116070
      dxz     :     0.024862
      dyz     :     0.030886
      dx2y2   :     0.021479
      dxy     :     0.017978
      f0      :     0.001373  f :     0.007602
      f+1     :     0.000813
      f-1     :     0.001283
      f+2     :     0.001121
      f-2     :     0.001149
      f+3     :     0.001009
      f-3     :     0.000854

  2 C s       :     3.310200  s :     3.310200
      pz      :     0.929892  p :     3.030891
      px      :     1.069226
      py      :     1.031772
      dz2     :     0.011061  d :     0.049169
      dxz     :     0.014748
      dyz     :     0.009266
      dx2y2   :     0.006804
      dxy     :     0.007291
      f0      :     0.000739  f :     0.003765
      f+1     :     0.000462
      f-1     :     0.000963
      f+2     :     0.000396
      f-2     :     0.000625
      f+3     :     0.000538
      f-3     :     0.000041

  3 C s       :     3.094368  s :     3.094368
      pz      :     0.810683  p :     2.338764
      px      :     0.744381
      py      :     0.783700
      dz2     :     0.040162  d :     0.243380
      dxz     :     0.016779
      dyz     :     0.081734
      dx2y2   :     0.039575
      dxy     :     0.065130
      f0      :     0.004294  f :     0.023847
      f+1     :     0.001934
      f-1     :     0.003063
      f+2     :     0.005585
      f-2     :     0.001748
      f+3     :     0.004502
      f-3     :     0.002722

  4 O s       :     3.749399  s :     3.749399
      pz      :     1.575733  p :     4.593397
      px      :     1.693701
      py      :     1.323963
      dz2     :     0.008002  d :     0.028447
      dxz     :     0.005958
      dyz     :     0.004843
      dx2y2   :     0.007544
      dxy     :     0.002101
      f0      :     0.000144  f :     0.001758
      f+1     :     0.000189
      f-1     :     0.000335
      f+2     :     0.000255
      f-2     :     0.000256
      f+3     :     0.000127
      f-3     :     0.000451

  5 O s       :     3.799722  s :     3.799722
      pz      :     1.693103  p :     4.555054
      px      :     1.524561
      py      :     1.337390
      dz2     :     0.002839  d :     0.028948
      dxz     :     0.000160
      dyz     :     0.008437
      dx2y2   :     0.007783
      dxy     :     0.009730
      f0      :     0.000247  f :     0.001797
      f+1     :     0.000051
      f-1     :     0.000251
      f+2     :     0.000336
      f-2     :     0.000013
      f+3     :     0.000562
      f-3     :     0.000336

  6 C s       :     3.208462  s :     3.208462
      pz      :     0.962860  p :     2.652976
      px      :     0.882819
      py      :     0.807298
      dz2     :     0.011446  d :     0.123917
      dxz     :     0.019292
      dyz     :     0.023833
      dx2y2   :     0.038916
      dxy     :     0.030431
      f0      :     0.000979  f :     0.009573
      f+1     :     0.001186
      f-1     :     0.000764
      f+2     :     0.001038
      f-2     :     0.001172
      f+3     :     0.001630
      f-3     :     0.002802

  7 C s       :     3.347994  s :     3.347994
      pz      :     0.945160  p :     2.871112
      px      :     1.000032
      py      :     0.925920
      dz2     :     0.005665  d :     0.085117
      dxz     :     0.006987
      dyz     :     0.022049
      dx2y2   :     0.029607
      dxy     :     0.020808
      f0      :     0.001111  f :     0.007283
      f+1     :     0.000600
      f-1     :     0.000677
      f+2     :     0.000687
      f-2     :     0.000903
      f+3     :     0.001318
      f-3     :     0.001986

  8 C s       :     3.151140  s :     3.151140
      pz      :     0.937960  p :     2.543693
      px      :     0.837573
      py      :     0.768160
      dz2     :     0.011331  d :     0.111825
      dxz     :     0.016117
      dyz     :     0.022544
      dx2y2   :     0.027858
      dxy     :     0.033975
      f0      :     0.001168  f :     0.009810
      f+1     :     0.001302
      f-1     :     0.000676
      f+2     :     0.001131
      f-2     :     0.001100
      f+3     :     0.001694
      f-3     :     0.002740

  9 C s       :     3.270569  s :     3.270569
      pz      :     0.922261  p :     2.825845
      px      :     0.924919
      py      :     0.978665
      dz2     :     0.009373  d :     0.083490
      dxz     :     0.016283
      dyz     :     0.010074
      dx2y2   :     0.025640
      dxy     :     0.022120
      f0      :     0.000790  f :     0.007361
      f+1     :     0.001263
      f-1     :     0.000590
      f+2     :     0.000706
      f-2     :     0.000870
      f+3     :     0.001283
      f-3     :     0.001857

 10 C s       :     3.229531  s :     3.229531
      pz      :     0.946464  p :     2.811603
      px      :     0.971311
      py      :     0.893828
      dz2     :     0.005409  d :     0.081153
      dxz     :     0.007244
      dyz     :     0.020960
      dx2y2   :     0.028188
      dxy     :     0.019351
      f0      :     0.001122  f :     0.007259
      f+1     :     0.000634
      f-1     :     0.000624
      f+2     :     0.000726
      f-2     :     0.000963
      f+3     :     0.001207
      f-3     :     0.001983

 11 C s       :     3.245886  s :     3.245886
      pz      :     0.927650  p :     2.825855
      px      :     0.918150
      py      :     0.980054
      dz2     :     0.007785  d :     0.081415
      dxz     :     0.012646
      dyz     :     0.013224
      dx2y2   :     0.018846
      dxy     :     0.028914
      f0      :     0.000939  f :     0.007186
      f+1     :     0.001076
      f-1     :     0.000458
      f+2     :     0.000928
      f-2     :     0.000651
      f+3     :     0.001378
      f-3     :     0.001756

 12 C s       :     3.173382  s :     3.173382
      pz      :     0.786722  p :     2.376032
      px      :     0.790103
      py      :     0.799207
      dz2     :     0.044152  d :     0.199023
      dxz     :     0.028403
      dyz     :     0.041005
      dx2y2   :     0.038794
      dxy     :     0.046669
      f0      :     0.001708  f :     0.017875
      f+1     :     0.000982
      f-1     :     0.003964
      f+2     :     0.002401
      f-2     :     0.003797
      f+3     :     0.002240
      f-3     :     0.002783

 13 O s       :     3.809399  s :     3.809399
      pz      :     1.511743  p :     4.548842
      px      :     1.565115
      py      :     1.471984
      dz2     :     0.006022  d :     0.029210
      dxz     :     0.002968
      dyz     :     0.007952
      dx2y2   :     0.005580
      dxy     :     0.006689
      f0      :     0.000135  f :     0.001730
      f+1     :     0.000020
      f-1     :     0.000503
      f+2     :     0.000304
      f-2     :     0.000297
      f+3     :     0.000269
      f-3     :     0.000203

 14 C s       :     3.187078  s :     3.187078
      pz      :     0.819493  p :     2.576318
      px      :     0.857719
      py      :     0.899106
      dz2     :     0.021319  d :     0.110266
      dxz     :     0.028743
      dyz     :     0.022248
      dx2y2   :     0.023584
      dxy     :     0.014372
      f0      :     0.001912  f :     0.009743
      f+1     :     0.001383
      f-1     :     0.000908
      f+2     :     0.000989
      f-2     :     0.002220
      f+3     :     0.001392
      f-3     :     0.000938

 15 C s       :     3.277896  s :     3.277896
      pz      :     0.895097  p :     2.853026
      px      :     0.993164
      py      :     0.964765
      dz2     :     0.027123  d :     0.083938
      dxz     :     0.016181
      dyz     :     0.016829
      dx2y2   :     0.007737
      dxy     :     0.016067
      f0      :     0.001450  f :     0.007294
      f+1     :     0.001238
      f-1     :     0.000821
      f+2     :     0.000916
      f-2     :     0.001632
      f+3     :     0.000505
      f-3     :     0.000732

 16 C s       :     3.219774  s :     3.219774
      pz      :     0.955139  p :     2.826697
      px      :     0.915534
      py      :     0.956025
      dz2     :     0.015865  d :     0.079779
      dxz     :     0.015237
      dyz     :     0.016589
      dx2y2   :     0.018850
      dxy     :     0.013238
      f0      :     0.001101  f :     0.007221
      f+1     :     0.000876
      f-1     :     0.000889
      f+2     :     0.000632
      f-2     :     0.001693
      f+3     :     0.001214
      f-3     :     0.000817

 17 C s       :     3.223831  s :     3.223831
      pz      :     0.953259  p :     2.813639
      px      :     0.947220
      py      :     0.913160
      dz2     :     0.014609  d :     0.081090
      dxz     :     0.022715
      dyz     :     0.013398
      dx2y2   :     0.018609
      dxy     :     0.011759
      f0      :     0.001310  f :     0.007185
      f+1     :     0.000941
      f-1     :     0.000666
      f+2     :     0.000768
      f-2     :     0.001558
      f+3     :     0.001254
      f-3     :     0.000689

 18 C s       :     3.224544  s :     3.224544
      pz      :     0.904776  p :     2.822945
      px      :     0.961049
      py      :     0.957120
      dz2     :     0.025651  d :     0.080227
      dxz     :     0.016563
      dyz     :     0.015261
      dx2y2   :     0.008113
      dxy     :     0.014639
      f0      :     0.001417  f :     0.007191
      f+1     :     0.001150
      f-1     :     0.000812
      f+2     :     0.000911
      f-2     :     0.001638
      f+3     :     0.000544
      f-3     :     0.000718

 19 C s       :     3.271553  s :     3.271553
      pz      :     0.980940  p :     2.830721
      px      :     0.925539
      py      :     0.924243
      dz2     :     0.016203  d :     0.083543
      dxz     :     0.013801
      dyz     :     0.019358
      dx2y2   :     0.019877
      dxy     :     0.014305
      f0      :     0.001157  f :     0.007331
      f+1     :     0.000860
      f-1     :     0.000884
      f+2     :     0.000663
      f-2     :     0.001696
      f+3     :     0.001198
      f-3     :     0.000873

 20 H s       :     0.848526  s :     0.848526
      pz      :     0.004295  p :     0.021652
      px      :     0.006128
      py      :     0.011229

 21 H s       :     0.844387  s :     0.844387
      pz      :     0.008871  p :     0.021331
      px      :     0.006167
      py      :     0.006293

 22 H s       :     0.847420  s :     0.847420
      pz      :     0.005293  p :     0.021405
      px      :     0.011294
      py      :     0.004818

 23 H s       :     0.576154  s :     0.576154
      pz      :     0.010921  p :     0.045400
      px      :     0.012472
      py      :     0.022008

 24 H s       :     0.813874  s :     0.813874
      pz      :     0.005304  p :     0.022394
      px      :     0.013397
      py      :     0.003694

 25 H s       :     0.833331  s :     0.833331
      pz      :     0.004450  p :     0.022387
      px      :     0.005090
      py      :     0.012846

 26 H s       :     0.829195  s :     0.829195
      pz      :     0.005619  p :     0.022139
      px      :     0.012936
      py      :     0.003585

 27 H s       :     0.821897  s :     0.821897
      pz      :     0.004853  p :     0.022151
      px      :     0.007326
      py      :     0.009971

 28 H s       :     0.806024  s :     0.806024
      pz      :     0.003994  p :     0.022530
      px      :     0.010431
      py      :     0.008105

 29 H s       :     0.829798  s :     0.829798
      pz      :     0.010800  p :     0.022131
      px      :     0.003861
      py      :     0.007470

 30 H s       :     0.828160  s :     0.828160
      pz      :     0.009464  p :     0.022021
      px      :     0.008557
      py      :     0.004000

 31 H s       :     0.830246  s :     0.830246
      pz      :     0.003727  p :     0.022124
      px      :     0.009945
      py      :     0.008452

 32 H s       :     0.835112  s :     0.835112
      pz      :     0.010705  p :     0.022407
      px      :     0.004021
      py      :     0.007681



                     *******************************
                     * LOEWDIN POPULATION ANALYSIS *
                     *******************************

----------------------
LOEWDIN ATOMIC CHARGES
----------------------
   0 H :    0.185917
   1 C :   -0.201941
   2 C :   -0.262693
   3 C :   -0.439065
   4 O :    0.104270
   5 O :    0.047758
   6 C :   -0.130022
   7 C :   -0.055696
   8 C :   -0.115522
   9 C :   -0.083783
  10 C :   -0.126737
  11 C :   -0.089106
  12 C :   -0.234087
  13 O :    0.078694
  14 C :   -0.122587
  15 C :   -0.089105
  16 C :   -0.134009
  17 C :   -0.124057
  18 C :   -0.133367
  19 C :   -0.085227
  20 H :    0.126279
  21 H :    0.128617
  22 H :    0.127868
  23 H :    0.215333
  24 H :    0.164087
  25 H :    0.157875
  26 H :    0.154905
  27 H :    0.160716
  28 H :    0.159671
  29 H :    0.152885
  30 H :    0.153097
  31 H :    0.152641
  32 H :    0.156391

-------------------------------
LOEWDIN REDUCED ORBITAL CHARGES
-------------------------------
  0 H s       :     0.756496  s :     0.756496
      pz      :     0.014284  p :     0.057588
      px      :     0.031865
      py      :     0.011439

  1 C s       :     2.731757  s :     2.731757
      pz      :     0.994537  p :     2.950205
      px      :     0.986538
      py      :     0.969131
      dz2     :     0.092241  d :     0.470348
      dxz     :     0.084897
      dyz     :     0.126649
      dx2y2   :     0.095673
      dxy     :     0.070888
      f0      :     0.008957  f :     0.049631
      f+1     :     0.005950
      f-1     :     0.007268
      f+2     :     0.007046
      f-2     :     0.008431
      f+3     :     0.006412
      f-3     :     0.005567

  2 C s       :     2.830596  s :     2.830596
      pz      :     1.017444  p :     3.149854
      px      :     1.076065
      py      :     1.056345
      dz2     :     0.060591  d :     0.257433
      dxz     :     0.061557
      dyz     :     0.056874
      dx2y2   :     0.037966
      dxy     :     0.040444
      f0      :     0.004826  f :     0.024811
      f+1     :     0.004272
      f-1     :     0.004630
      f+2     :     0.003074
      f-2     :     0.003997
      f+3     :     0.002938
      f-3     :     0.001074

  3 C s       :     2.773739  s :     2.773739
      pz      :     0.866585  p :     2.612037
      px      :     0.767992
      py      :     0.977461
      dz2     :     0.157200  d :     0.907644
      dxz     :     0.086844
      dyz     :     0.288526
      dx2y2   :     0.165443
      dxy     :     0.209632
      f0      :     0.026544  f :     0.145645
      f+1     :     0.013781
      f-1     :     0.019416
      f+2     :     0.030667
      f-2     :     0.011857
      f+3     :     0.025803
      f-3     :     0.017577

  4 O s       :     3.327242  s :     3.327242
      pz      :     1.568444  p :     4.497242
      px      :     1.613812
      py      :     1.314987
      dz2     :     0.017102  d :     0.066732
      dxz     :     0.012376
      dyz     :     0.012919
      dx2y2   :     0.018154
      dxy     :     0.006182
      f0      :     0.000509  f :     0.004513
      f+1     :     0.000621
      f-1     :     0.000846
      f+2     :     0.000728
      f-2     :     0.000827
      f+3     :     0.000251
      f-3     :     0.000732

  5 O s       :     3.411504  s :     3.411504
      pz      :     1.562137  p :     4.472752
      px      :     1.421742
      py      :     1.488873
      dz2     :     0.008402  d :     0.062290
      dxz     :     0.000151
      dyz     :     0.016087
      dx2y2   :     0.023969
      dxy     :     0.013682
      f0      :     0.000619  f :     0.005696
      f+1     :     0.000090
      f-1     :     0.001109
      f+2     :     0.000969
      f-2     :     0.000028
      f+3     :     0.001190
      f-3     :     0.001690

  6 C s       :     2.714836  s :     2.714836
      pz      :     0.869103  p :     2.859120
      px      :     1.019318
      py      :     0.970700
      dz2     :     0.044695  d :     0.501619
      dxz     :     0.070666
      dyz     :     0.077726
      dx2y2   :     0.153061
      dxy     :     0.155472
[...]
      f+1     :     0.005324
      f-1     :     0.025274
      f+2     :     0.013511
      f-2     :     0.022344
      f+3     :     0.013439
      f-3     :     0.017256

 13 O s       :     3.397884  s :     3.397884
      pz      :     1.465822  p :     4.446602
      px      :     1.465516
      py      :     1.515265
      dz2     :     0.011287  d :     0.066521
      dxz     :     0.006776
      dyz     :     0.021298
      dx2y2   :     0.015465
      dxy     :     0.011695
      f0      :     0.000538  f :     0.005868
      f+1     :     0.000107
      f-1     :     0.001383
      f+2     :     0.001374
      f-2     :     0.000967
      f+3     :     0.000661
      f-3     :     0.000839

 14 C s       :     2.709205  s :     2.709205
      pz      :     0.973082  p :     2.872620
      px      :     0.966408
      py      :     0.933130
      dz2     :     0.099869  d :     0.483610
      dxz     :     0.139155
      dyz     :     0.084377
      dx2y2   :     0.083408
      dxy     :     0.076800
      f0      :     0.011224  f :     0.054771
      f+1     :     0.008777
      f-1     :     0.006187
      f+2     :     0.005383
      f-2     :     0.010956
      f+3     :     0.006935
      f-3     :     0.005311

 15 C s       :     2.760232  s :     2.760232
      pz      :     1.022856  p :     2.906479
      px      :     0.971692
      py      :     0.911930
      dz2     :     0.121057  d :     0.381903
      dxz     :     0.089823
      dyz     :     0.075267
      dx2y2   :     0.030543
      dxy     :     0.065213
      f0      :     0.008080  f :     0.042790
      f+1     :     0.008622
      f-1     :     0.005576
      f+2     :     0.006887
      f-2     :     0.007977
      f+3     :     0.001990
      f-3     :     0.003658

 16 C s       :     2.766521  s :     2.766521
      pz      :     0.988334  p :     2.944507
      px      :     1.018929
      py      :     0.937245
      dz2     :     0.080320  d :     0.380435
      dxz     :     0.089006
      dyz     :     0.070860
      dx2y2   :     0.073719
      dxy     :     0.066530
      f0      :     0.007274  f :     0.043018
      f+1     :     0.007236
      f-1     :     0.004260
      f+2     :     0.004565
      f-2     :     0.008425
      f+3     :     0.005602
      f-3     :     0.005655

 17 C s       :     2.769273  s :     2.769273
      pz      :     0.998022  p :     2.926196
      px      :     0.985368
      py      :     0.942806
      dz2     :     0.072865  d :     0.383791
      dxz     :     0.122218
      dyz     :     0.062861
      dx2y2   :     0.069645
      dxy     :     0.056202
      f0      :     0.008801  f :     0.043022
      f+1     :     0.006306
      f-1     :     0.005524
      f+2     :     0.003838
      f-2     :     0.007658
      f+3     :     0.006200
      f-3     :     0.004694

 18 C s       :     2.766487  s :     2.766487
      pz      :     1.037793  p :     2.943573
      px      :     0.975261
      py      :     0.930519
      dz2     :     0.122717  d :     0.380439
      dxz     :     0.090476
      dyz     :     0.072369
      dx2y2   :     0.030781
      dxy     :     0.064096
      f0      :     0.008097  f :     0.043043
      f+1     :     0.008759
      f-1     :     0.005602
      f+2     :     0.006752
      f-2     :     0.008150
      f+3     :     0.002056
      f-3     :     0.003628

 19 C s       :     2.760278  s :     2.760278
      pz      :     0.989514  p :     2.903973
      px      :     1.001329
      py      :     0.913130
      dz2     :     0.079391  d :     0.380938
      dxz     :     0.084930
      dyz     :     0.073438
      dx2y2   :     0.074701
      dxy     :     0.068479
      f0      :     0.007206  f :     0.042959
      f+1     :     0.007137
      f-1     :     0.004306
      f+2     :     0.004520
      f-2     :     0.008246
      f+3     :     0.005814
      f-3     :     0.005730

 20 H s       :     0.811224  s :     0.811224
      pz      :     0.012873  p :     0.061305
      px      :     0.017259
      py      :     0.031173

 21 H s       :     0.809712  s :     0.809712
      pz      :     0.019148  p :     0.061239
      px      :     0.021677
      py      :     0.020414

 22 H s       :     0.811484  s :     0.811484
      pz      :     0.017996  p :     0.061776
      px      :     0.030342
      py      :     0.013438

 23 H s       :     0.635051  s :     0.635051
      pz      :     0.027322  p :     0.149305
      px      :     0.056363
      py      :     0.065621

 24 H s       :     0.774968  s :     0.774968
      pz      :     0.016206  p :     0.060938
      px      :     0.033935
      py      :     0.010796

 25 H s       :     0.783962  s :     0.783962
      pz      :     0.012929  p :     0.060284
      px      :     0.014353
      py      :     0.033003

 26 H s       :     0.786971  s :     0.786971
      pz      :     0.015721  p :     0.059205
      px      :     0.032617
      py      :     0.010867

 27 H s       :     0.781475  s :     0.781475
      pz      :     0.013901  p :     0.059745
      px      :     0.018828
      py      :     0.027015

 28 H s       :     0.780309  s :     0.780309
      pz      :     0.011512  p :     0.060692
      px      :     0.028588
      py      :     0.020592

 29 H s       :     0.788332  s :     0.788332
      pz      :     0.029005  p :     0.059305
      px      :     0.011783
      py      :     0.018517

 30 H s       :     0.788564  s :     0.788564
      pz      :     0.024691  p :     0.059113
      px      :     0.022456
      py      :     0.011966

 31 H s       :     0.788672  s :     0.788672
      pz      :     0.011308  p :     0.059217
      px      :     0.027640
      py      :     0.020269

 32 H s       :     0.784677  s :     0.784677
      pz      :     0.029759  p :     0.060236
      px      :     0.011738
      py      :     0.018738



                      *****************************
                      * MAYER POPULATION ANALYSIS *
                      *****************************

  NA   - Mulliken gross atomic population
  ZA   - Total nuclear charge
  QA   - Mulliken gross atomic charge
  VA   - Mayer's total valence
  BVA  - Mayer's bonded valence
  FA   - Mayer's free valence

  ATOM       NA         ZA         QA         VA         BVA        FA
  0 H      0.8623     1.0000     0.1377     0.9682     0.9682    -0.0000
  1 C      6.0548     6.0000    -0.0548     3.6659     3.6659    -0.0000
  2 C      6.3887     6.0000    -0.3887     3.9042     3.9042     0.0000
  3 C      5.6926     6.0000     0.3074     4.3252     4.3252    -0.0000
  4 O      8.3767     8.0000    -0.3767     2.0912     2.0912     0.0000
  5 O      8.3676     8.0000    -0.3676     2.1232     2.1232    -0.0000
  6 C      5.8731     6.0000     0.1269     3.6601     3.6601    -0.0000
  7 C      6.3327     6.0000    -0.3327     3.9878     3.9878     0.0000
  8 C      5.8146     6.0000     0.1854     3.4672     3.4672     0.0000
  9 C      6.2019     6.0000    -0.2019     3.9347     3.9347    -0.0000
 10 C      6.1346     6.0000    -0.1346     3.8583     3.8583    -0.0000
 11 C      6.1824     6.0000    -0.1824     3.8722     3.8722    -0.0000
 12 C      5.7748     6.0000     0.2252     3.9960     3.9960    -0.0000
 13 O      8.3797     8.0000    -0.3797     2.0898     2.0898    -0.0000
 14 C      5.8634     6.0000     0.1366     3.4850     3.4850    -0.0000
 15 C      6.2268     6.0000    -0.2268     3.9257     3.9257    -0.0000
 16 C      6.1317     6.0000    -0.1317     3.8525     3.8525    -0.0000
 17 C      6.1261     6.0000    -0.1261     3.8744     3.8744    -0.0000
 18 C      6.1321     6.0000    -0.1321     3.8616     3.8616     0.0000
 19 C      6.2005     6.0000    -0.2005     3.9351     3.9351     0.0000
 20 H      0.8686     1.0000     0.1314     0.9696     0.9696    -0.0000
 21 H      0.8680     1.0000     0.1320     0.9689     0.9689     0.0000
 22 H      0.8716     1.0000     0.1284     0.9765     0.9765     0.0000
 23 H      0.6278     1.0000     0.3722     0.8779     0.8779    -0.0000
 24 H      0.8354     1.0000     0.1646     0.9646     0.9646    -0.0000
 25 H      0.8583     1.0000     0.1417     0.9897     0.9897    -0.0000
 26 H      0.8528     1.0000     0.1472     0.9658     0.9658    -0.0000
 27 H      0.8507     1.0000     0.1493     0.9788     0.9788    -0.0000
 28 H      0.8336     1.0000     0.1664     0.9590     0.9590    -0.0000
 29 H      0.8525     1.0000     0.1475     0.9642     0.9642     0.0000
 30 H      0.8504     1.0000     0.1496     0.9626     0.9626    -0.0000
 31 H      0.8532     1.0000     0.1468     0.9649     0.9649    -0.0000
 32 H      0.8597     1.0000     0.1403     0.9910     0.9910     0.0000

  Mayer bond orders larger than 0.100000
B(  0-H ,  1-C ) :   0.9513 B(  1-C ,  2-C ) :   0.9435 B(  1-C ,  3-C ) :   0.9670 
B(  1-C ,  6-C ) :   0.8934 B(  2-C , 20-H ) :   0.9719 B(  2-C , 21-H ) :   0.9698 
B(  2-C , 22-H ) :   0.9686 B(  3-C ,  4-O ) :   1.2211 B(  3-C ,  5-O ) :   2.0625 
B(  4-O , 23-H ) :   0.8410 B(  6-C ,  7-C ) :   1.3593 B(  6-C , 11-C ) :   1.3341 
B(  7-C ,  8-C ) :   1.3472 B(  7-C , 24-H ) :   0.9604 B(  8-C ,  9-C ) :   1.3137 
B(  8-C , 12-C ) :   0.9548 B(  9-C , 10-C ) :   1.4041 B(  9-C , 25-H ) :   0.9726 
B( 10-C , 11-C ) :   1.3857 B( 10-C , 26-H ) :   0.9809 B( 11-C , 27-H ) :   0.9622 
B( 12-C , 13-O ) :   2.0061 B( 12-C , 14-C ) :   0.9756 B( 14-C , 15-C ) :   1.3242 
B( 14-C , 19-C ) :   1.3165 B( 15-C , 16-C ) :   1.4021 B( 15-C , 28-H ) :   0.9654 
B( 16-C , 17-C ) :   1.3854 B( 16-C , 29-H ) :   0.9748 B( 17-C , 18-C ) :   1.3695 
B( 17-C , 30-H ) :   0.9690 B( 18-C , 19-C ) :   1.4274 B( 18-C , 31-H ) :   0.9763 
B( 19-C , 32-H ) :   0.9724 

-------
TIMINGS
-------

Total SCF time: 0 days 0 hours 3 min 2 sec 

Total time                  ....     182.719 sec
Sum of individual times     ....     182.635 sec  (100.0%)

SCF preparation             ....       0.373 sec  (  0.2%)
Fock matrix formation       ....     181.534 sec  ( 99.4%)
  Startup                   ....       0.022 sec  (  0.0% of F)
  Split-RI-J                ....       9.377 sec  (  5.2% of F)
  Chain of spheres X        ....     145.992 sec  ( 80.4% of F)
  XC integration            ....      12.597 sec  (  6.9% of F)
    Basis function eval.    ....       3.322 sec  ( 26.4% of XC)
    Density eval.           ....       3.972 sec  ( 31.5% of XC)
    XC-Functional eval.     ....       0.168 sec  (  1.3% of XC)
    XC-Potential eval.      ....       4.847 sec  ( 38.5% of XC)
  CPCM terms                ....      13.473 sec  (  7.4% of F)
Diagonalization             ....       0.000 sec  (  0.0%)
Density matrix formation    ....       0.053 sec  (  0.0%)
Total Energy calculation    ....       0.032 sec  (  0.0%)
Population analysis         ....       0.100 sec  (  0.1%)
Orbital Transformation      ....       0.082 sec  (  0.0%)
Orbital Orthonormalization  ....       0.000 sec  (  0.0%)
DIIS solution               ....       0.095 sec  (  0.1%)
SOSCF solution              ....       0.366 sec  (  0.2%)
Finished LeanSCF after 182.8 sec

Maximum memory used throughout the entire LEANSCF-calculation: 142.5 MB

-------------------------   --------------------
FINAL SINGLE POINT ENERGY      -843.679002416384
-------------------------   --------------------

                                *** OPTIMIZATION RUN DONE ***


------------------------------------------------------------------------------
                              ORCA PROPERTY CALCULATIONS
------------------------------------------------------------------------------

GBWName                                 ... Dexketoprofen\Dexketoprofen_B3LYP_def2-TZVP\Dexketoprofen_B3LYP_def2-TZVP.orcainp.gbw
Number of atoms                         ...     33
Number of basis functions               ...    673
Max core memory                         ...   1024 MB

Electric properties:
Dipole moment                           ... YES
Quadrupole moment                       ...  NO
Static polarizability (Dipole/Dipole)   ...  NO
Static polarizability (Dipole/Quad.)    ...  NO
Static polarizability (Quad./Quad.)     ...  NO
Static polarizability (Velocity)        ...  NO

Atomic electric properties:
Dipole moment                           ...  NO
Quadrupole moment                       ...  NO
Static polarizability                   ...  NO

Choice of electric origin               ... Center of mass
Position of electric origin             ...     3.662485    -5.488189     1.459080

General magnetic properties:
Magnetizability                         ...  NO

EPR properties:
g-Tensor (aka g-matrix)                 ...  NO
Zero-Field splitting spin-orbit         ...  NO
Zero-field splitting spin-spin          ...  NO
Hyperfine couplings                     ...  NO (   0 nuclei)
Quadrupole couplings                    ...  NO (   0 nuclei)
Contact density                         ...  NO (   0 nuclei)

NMR properties:
Chemical shifts                         ...  NO (   0 nuclei)
Spin-rotation constants                 ...  NO (   0 nuclei)
Spin-spin couplings                     ...  NO (   0 nuclei,    0 pairs)

Choice of magnetic origin               ... GIAO
Position of magnetic origin             ...     0.000000     0.000000     0.000000

Properties with geometric perturbations:
SCF Hessian                             ...  NO
IR spectrum                             ...  NO
VCD spectrum                            ...  NO
X-ray spectroscopy properties:
SCF XES/XAS/RIXS spectra                ...  NO


-------------
DIPOLE MOMENT
-------------

Method             : SCF
Type of density    : Electron Density
Multiplicity       :   1
Irrep              :   0
Energy             :  -843.6790024163844919 Eh
Relativity type    : 
Basis              : AO
                                X                 Y                 Z
Electronic contribution:      2.909220105      -3.965921980       2.112074196
Nuclear contribution   :     -4.601860553       3.696733627      -1.069799408
                        -----------------------------------------
Total Dipole Moment    :     -1.692640448      -0.269188354       1.042274788
                        -----------------------------------------
Magnitude (a.u.)       :      2.005948850
Magnitude (Debye)      :      5.098716775



--------------------
Rotational spectrum 
--------------------
 
Rotational constants in cm-1:             0.021027             0.007123             0.005940 
Rotational constants in MHz :           630.369690           213.536077           178.063938 

Dipole components along the rotational axes: 
x,y,z [a.u.] :     1.286698     1.466150     0.467595 
x,y,z [Debye]:     3.270525     3.726656     1.188533 

 

Dipole moment calculation done in   0.0 sec 

Maximum memory used throughout the entire PROP-calculation: 80.5 MB

--------------------------------
SUGGESTED CITATIONS FOR THIS RUN
--------------------------------

Below you find a list of papers that are relevant to this ORCA run
We neither can nor want to force you to cite these papers, but we appreciate if you do
You receive ORCA, which is the product of decades of hard work by many enthusiastic individuals, for free
The only thing we kindly ask in return is that you cite our papers,
We deeply appreciate it, if you show your appreciation for ORCA by not just citing the generic ORCA reference.

Please note that relegating all ORCA citations to the supporting information does *not* help us.
SI sections are not indexed - citations you put there will not count into any citation statistics
But we need these citations in order to attract the funding resources that allow us to do what we are doing

Therefore, if you are a happy ORCA user, please consider citing a few of the papers listed below in the main body of your paper

In addition to the list printed below, the program has created the file Dexketoprofen\Dexketoprofen_B3LYP_def2-TZVP\Dexketoprofen_B3LYP_def2-TZVP.orcainp.bibtex that contains the list in bibtex format
You can import this file easily into all common literature databanks and citation aid programs


List of essential papers. We consider these as the minimum necessary citations

  1. Neese,F.
     Software update: the ORCA program system, version 5.0
     WIRES Comput. Molec. Sci., 2022 12(1)e1606
     doi.org/10.1002/wcms.1606

List of papers to cite with high priority. The work reported in these papers was absolutely
necessary for this run to complete.
Our perspective: the developers of density functionals and basis sets usually get cited in chemistry papers
Good! But without the algorithms to do something with them, the functionals or basis sets would not do anything.
Hence, in our opinion, the algorithm design and method developments papers are equally worthy of getting cited

  1. Neese,F.
     An improvement of the resolution of the identity approximation for the formation of the Coulomb matrix
     J. Comp. Chem., 2003 24(14)1740-1747
     doi.org/10.1002/jcc.10318
  2. Neese,F.; Wennmohs,F.; Hansen,A.; Becker,U.
     Efficient, approximate and parallel Hartree-Fock and hybrid DFT calculations. A 'chain-of-spheres' algorithm for the Hartree-Fock exchange
     Chem. Phys., 2009 356(1-3)98-109
     doi.org/10.1016/j.chemphys.2008.10.036
  3. Garcia-Rates,M.; Neese,F.
     Effect of the Solute Cavity on the Solvation Energy and its Derivatives within the Framework of the Gaussian Charge Scheme
     J. Comput. Chem., 2020 41 922-939
     doi.org/10.1002/jcc.26139
  4. Helmich-Paris,B.; de Souza,B.; Neese,F.; Izsák,R.
     An improved chain of spheres for exchange algorithm
     J. Chem. Phys., 2021 155 104109
     doi.org/doi: 10.1063/5.0058766.
  5. Neese,F.
     The SHARK Integral Generation and Digestion System
     J. Comp. Chem., 2022  1-16
     doi.org/10.1002/jcc.26942

List of suggested additional citations. These are papers that are important in the 'surrounding' of 
of this run, or papers that preceded the highly important papers. If you like your results we are grateful for a citation.

  1. Izsak,R.; Neese,F.
     An overlap fitted chain of spheres exchange method
     J. Chem. Phys., 2011 135 144105
     doi.org/10.1063/1.3646921
  2. Izsak,R.; Hansen,A.; Neese,F.
     The resolution of identity and chain of spheres approximations for the LPNO-CCSD singles Fock term
     Molec. Phys., 2012 110 2413-2417
     doi.org/10.1080/00268976.2012.687466
  3. Neese,F.
     The ORCA program system
     WIRES Comput. Molec. Sci., 2012 2(1)73-78
     doi.org/10.1002/wcms.81
  4. Izsak,R.; Neese,F.; Klopper,W.
     Robust fitting techniques in the chain of spheres approximation to the Fock exchange: The role of the complementary space
     J. Chem. Phys., 2013 139 
     doi.org/10.1063/1.4819264
  5. Neese,F.
     Software update: the ORCA program system, version 4.0
     WIRES Comput. Molec. Sci., 2018 8(1)1-6
     doi.org/10.1002/wcms.1327
  6. Neese,F.; Wennmohs,F.; Becker,U.; Riplinger,C.
     The ORCA quantum chemistry program package
     J. Chem. Phys., 2020 152 Art. No. L224108
     doi.org/10.1063/5.0004608

List of optional additional citations

  1. Neese,F.
     Approximate second-order SCF convergence for spin unrestricted wavefunctions
     Chem. Phys. Lett., 2000 325(1-3)93-98
     doi.org/10.1016/s0009-2614(00)00662-x

Timings for individual modules:

Sum of individual times          ...     7793.273 sec (= 129.888 min)
Startup calculation              ...       79.648 sec (=   1.327 min)   1.0 %
SCF iterations                   ...     5027.145 sec (=  83.786 min)  64.5 %
Property calculations            ...        0.141 sec (=   0.002 min)   0.0 %
SCF Gradient evaluation          ...     2686.107 sec (=  44.768 min)  34.5 %
Geometry relaxation              ...        0.232 sec (=   0.004 min)   0.0 %
                             ****ORCA TERMINATED NORMALLY****
TOTAL RUN TIME: 0 days 2 hours 9 minutes 55 seconds 814 msec
