
                                 *****************
                                 * O   R   C   A *
                                 *****************

                                            #,                                       
                                            ###                                      
                                            ####                                     
                                            #####                                    
                                            ######                                   
                                           ########,                                 
                                     ,,################,,,,,                         
                               ,,#################################,,                 
                          ,,##########################################,,             
                       ,#########################################, ''#####,          
                    ,#############################################,,   '####,        
                  ,##################################################,,,,####,       
                ,###########''''           ''''###############################       
              ,#####''   ,,,,##########,,,,          '''####'''          '####       
            ,##' ,,,,###########################,,,                        '##       
           ' ,,###''''                  '''############,,,                           
         ,,##''                                '''############,,,,        ,,,,,,###''
      ,#''                                            '''#######################'''  
     '                                                          ''''####''''         
             ,#######,   #######,   ,#######,      ##                                
            ,#'     '#,  ##    ##  ,#'     '#,    #''#        ,####,   ,####,        
            ##       ##  ##   ,#'  ##            #'  '#       #'       #'  '#        
            ##       ##  #######   ##           ,######,      #####,   #    #        
            '#,     ,#'  ##    ##  '#,     ,#' ,#      #,     #,   #   #,  ,#        
             '#######'   ##     ##  '#######'  #'      '#     '####' # '####'        



                #########################################################
                #                        -***-                          #
                #          Department of theory and spectroscopy        #
                #                                                       #
                #                      Frank Neese                      #
                #                                                       #
                #     Directorship, Architecture, Infrastructure        #
                #                    SHARK, DRIVERS                     #
                #        Core code/Algorithms in most modules           #
                #                                                       #
                #        Max Planck Institute fuer Kohlenforschung      #
                #                Kaiser Wilhelm Platz 1                 #
                #                 D-45470 Muelheim/Ruhr                 #
                #                      Germany                          #
                #                                                       #
                #                  All rights reserved                  #
                #                        -***-                          #
                #########################################################


                         Program Version 6.0.0  -   RELEASE   -


 With contributions from (in alphabetic order):
   Daniel Aravena         : Magnetic Suceptibility
   Michael Atanasov       : Ab Initio Ligand Field Theory (pilot matlab implementation)
   Alexander A. Auer      : GIAO ZORA, VPT2 properties, NMR spectrum
   Ute Becker             : All parallelization in ORCA, NUMFREQ, NUMCALC
   Giovanni Bistoni       : ED, misc. LED, open-shell LED, HFLD
   Martin Brehm           : Molecular dynamics
   Dmytro Bykov           : pre 5.0 version of the SCF Hessian
   Marcos Casanova-Páez   : Triplet and SCS-CIS(D). UHF-(DLPNO)-IP/EA/STEOM-CCSD. UHF-CVS-IP/STEOM-CCSD
   Vijay G. Chilkuri      : MRCI spin determinant printing, contributions to CSF-ICE
   Pauline Colinet        : FMM embedding
   Dipayan Datta          : RHF DLPNO-CCSD density
   Achintya Kumar Dutta   : EOM-CC, STEOM-CC
   Nicolas Foglia         : Exact transition moments, OPA infrastructure, MCD improvements
   Dmitry Ganyushin       : Spin-Orbit,Spin-Spin,Magnetic field MRCI
   Miquel Garcia          : C-PCM and meta-GGA Hessian, CCSD/C-PCM, Gaussian charge scheme
   Tiago L. C. Gouveia    : GS-ROHF, GS-ROCIS
   Yang Guo               : DLPNO-NEVPT2, F12-NEVPT2, CIM, IAO-localization
   Andreas Hansen         : Spin unrestricted coupled pair/coupled cluster methods
   Ingolf Harden          : AUTO-CI MPn and infrastructure 
   Benjamin Helmich-Paris : MC-RPA, TRAH-(SCF,CASSCF), AVAS, COSX integrals, SCF dyn. polar.
   Lee Huntington         : MR-EOM, pCC
   Robert Izsak           : Overlap fitted RIJCOSX, COSX-SCS-MP3, EOM
   Riya Kayal             : Wick's Theorem for AUTO-CI, AUTO-CI UHF-CCSDT
   Emily Kempfer          : AUTO-CI, RHF CISDT and CCSDT
   Christian Kollmar      : KDIIS, OOCD, Brueckner-CCSD(T), CCSD density, CASPT2, CASPT2-K, improved NEVPT2
   Axel Koslowski         : Symmetry handling
   Simone Kossmann        : Meta GGA functionals, TD-DFT gradient, OOMP2, (MP2 Hessian; deprecated post 5.0)
   Lucas Lang             : DCDCAS
   Marvin Lechner         : AUTO-CI (C++ implementation), FIC-MRCC
   Spencer Leger          : CASSCF response
   Dagmar Lenk            : GEPOL surface, SMD, ORCA-2-JSON
   Dimitrios Liakos       : Extrapolation schemes; Compound Job, initial MDCI parallelization
   Dimitrios Manganas     : Further ROCIS development; embedding schemes. LFT, Crystal Embedding
   Dimitrios Pantazis     : SARC Basis sets
   Anastasios Papadopoulos: AUTO-CI, single reference methods and gradients
   Taras Petrenko         : pre 6.0 DFT Hessian and TD-DFT gradient, (ASA, deprecated), ECA, 1-Electron XAS/XES, NRVS
   Peter Pinski           : DLPNO-MP2, DLPNO-MP2 Gradient
   Christoph Reimann      : Effective Core Potentials
   Marius Retegan         : Local ZFS, SOC
   Christoph Riplinger    : Optimizer, TS searches, QM/MM, DLPNO-CCSD(T), (RO)-DLPNO pert. Triples
   Michael Roemelt        : Original ROCIS implementation
   Masaaki Saitow         : Open-shell DLPNO-CCSD energy and density
   Barbara Sandhoefer     : DKH picture change effects
   Kantharuban Sivalingam : CASSCF convergence/infrastructure, NEVPT2 and variants, FIC-MRCI
   Bernardo de Souza      : ESD, SOC TD-DFT
   Georgi Stoychev        : AutoAux, RI-MP2 NMR, DLPNO-MP2 response, X2C
   Van Anh Tran           : RI-MP2 g-tensors
   Willem Van den Heuvel  : Paramagnetic NMR
   Zikuan Wang            : NOTCH, Electric field optimization 
   Frank Wennmohs         : Technical directorship and infrastructure
   Hang Xu                : AUTO-CI-Response properties 


 We gratefully acknowledge several colleagues who have allowed us to
 interface, adapt or use parts of their codes:
   Stefan Grimme, W. Hujo, H. Kruse, P. Pracht,  : VdW corrections, initial TS optimization,
                  C. Bannwarth, S. Ehlert,         DFT functionals, gCP, sTDA/sTD-DF
                  L. Wittmann, M. Mueller
   Ed Valeev, F. Pavosevic, A. Kumar             : LibInt (2-el integral package), F12 methods
   Garnet Chan, S. Sharma, J. Yang, R. Olivares  : DMRG
   Ulf Ekstrom                                   : XCFun DFT Library
   Mihaly Kallay                                 : mrcc  (arbitrary order and MRCC methods)
   Frank Weinhold                                : gennbo (NPA and NBO analysis)
   Simon Mueller                                 : openCOSMO-RS
   Christopher J. Cramer and Donald G. Truhlar   : smd solvation model
   Lars Goerigk                                  : TD-DFT with DH, B97 family of functionals
   V. Asgeirsson, H. Jonsson                     : NEB implementation
   FAccTs GmbH                                   : IRC, NEB, NEB-TS, DLPNO-Multilevel, CI-OPT
                                                   MM, QMMM, 2- and 3-layer-ONIOM, Crystal-QMMM,
                                                   LR-CPCM, SF, NACMEs, symmetry and pop. for TD-DFT,
                                                   nearIR, NL-DFT gradient (VV10), updates on ESD,
                                                   ML-optimized integration grids, MBIS, APM,
                                                   GOAT, DOCKER, SOLVATOR, interface openCOSMO-RS
   S Lehtola, MJT Oliveira, MAL Marques          : LibXC Library
   Liviu Ungur et al                             : ANISO software


 Your calculation uses the libint2 library for the computation of 2-el integrals
 For citations please refer to: http://libint.valeyev.net

 Your ORCA version has been built with support for libXC version: 6.2.2
 For citations please refer to: https://libxc.gitlab.io

 This ORCA versions uses:
   CBLAS   interface :  Fast vector & matrix operations
   LAPACKE interface :  Fast linear algebra routines
   Shared memory     :  Shared parallel matrices


Warning: RI is on but no J-basis has been assigned. Assigning Def2/J (nothing to worry about!)
================================================================================

----- Orbital basis set information -----
Your calculation utilizes the basis: 6-311+G**
   H, Li - Ne  : R. Krishnan, J. S. Binkley, R. Seeger and J. A. Pople, J. Chem. Phys. 72, 650 (1980).
   Na - Ar     : A. D. McLean and G. S. Chandler J. Chem. Phys. 72, 5639, (1980).
   K  - Ca     : J.-P. Blaudeau, M. P. McGrath, L. A. Curtiss and L. Radom, J. Chem. Phys. 107, 5016 (1997).
   Ga - Kr     : L. A. Curtiss, M. P. McGrath, J.-P. Blandeau, N. E. Davis, R. C. Binning and L. Radom, J. Chem. Phys. 103, 6104 (1995).
   Pol./Diff.
   H, Li - Cl  : T. Clark, J. Chandrasekhar and P. v. R. Schleyer, J. Comp. Chem. 4, 294 (1983).
   H - Ne      : M. J. Frisch, J. A. Pople and J. S. Binkley, J. Chem. Phys. 80, 3265 (1984).

----- AuxJ basis set information -----
Your calculation utilizes the auxiliary basis: def2/J
   F. Weigend, Phys. Chem. Chem. Phys. 8, 1057 (2006).

================================================================================
                                        WARNINGS
                       Please study these warnings very carefully!
================================================================================


WARNING: Geometry Optimization
  ===> : Switching off AutoStart
         For restart on a previous wavefunction, please use MOREAD

================================================================================
                                       INPUT FILE
================================================================================
NAME = Dexketoprofen\Dexketoprofen_TPSS_6-311+G\Dexketoprofen_TPSS_6-311+G.orcainp
|  1> # ORCA input file
|  2> # 
|  3> !TPSS 6-311+G** Opt CPCM(WATER)
|  4> * xyz 0 1
|  5>    H        2.19682        -0.91154         0.64044
|  6>    C        2.08274        -0.07230        -0.06151
|  7>    C        0.61781         0.37039        -0.01313
|  8>    C        2.95733         1.04661         0.51400
|  9>    O        4.28094         0.77780         0.52831
| 10>    O        2.52215         2.08691         0.98966
| 11>    C        2.46394        -0.56230        -1.45986
| 12>    C        2.32706        -1.92842        -1.78584
| 13>    C        2.67594        -2.40638        -3.06924
| 14>    C        3.08558        -1.51093        -4.05073
| 15>    C        3.20379        -0.15525        -3.74761
| 16>    C        2.90509         0.31130        -2.46255
| 17>    C        2.63455        -3.85377        -3.42227
| 18>    O        2.31712        -4.18658        -4.56116
| 19>    C        3.03282        -4.89946        -2.43983
| 20>    C        3.93140        -4.62386        -1.40002
| 21>    C        4.30356        -5.63104        -0.51010
| 22>    C        3.79973        -6.92143        -0.66808
| 23>    C        2.92349        -7.20672        -1.71455
| 24>    C        2.54088        -6.19946        -2.60247
| 25>    H        0.34865         0.71015         0.99629
| 26>    H       -0.06373        -0.44391        -0.27769
| 27>    H        0.43042         1.20885        -0.69604
| 28>    H        4.52517        -0.07595         0.12336
| 29>    H        1.94296        -2.62253        -1.04434
| 30>    H        3.32225        -1.86705        -5.05606
| 31>    H        3.53216         0.53830        -4.52112
| 32>    H        3.01182         1.37929        -2.26715
| 33>    H        4.36991        -3.63997        -1.27773
| 34>    H        4.99900        -5.41307         0.29648
| 35>    H        4.10396        -7.70787         0.01569
| 36>    H        2.54331        -8.21744        -1.84315
| 37>    H        1.86720        -6.43272        -3.42364
| 38> *
| 39> 
| 40>                          ****END OF INPUT****
================================================================================

                       *****************************
                       * Geometry Optimization Run *
                       *****************************

Geometry optimization settings:
Update method            Update   .... BFGS
Choice of coordinates    CoordSys .... (2022) Redundant Internals
Initial Hessian          InHess   .... Almloef's Model
Max. no of cycles        MaxIter  .... 99

Convergence Tolerances:
Energy Change            TolE     ....  5.0000e-06 Eh
Max. Gradient            TolMAXG  ....  3.0000e-04 Eh/bohr
RMS Gradient             TolRMSG  ....  1.0000e-04 Eh/bohr
Max. Displacement        TolMAXD  ....  4.0000e-03 bohr
RMS Displacement         TolRMSD  ....  2.0000e-03 bohr
Strict Convergence                .... False

------------------------------------------------------------------------------
                        ORCA OPTIMIZATION COORDINATE SETUP
------------------------------------------------------------------------------

The optimization will be done in redundant internal coordinates (2022)
Making redundant internal coordinates   ...  (2022 redundants) done
Evaluating the initial hessian          ...  (Almloef) done
Evaluating the coordinates              ...  done
Calculating the B-matrix                .... done
Calculating the G-matrix                .... done
Diagonalizing the G-matrix              .... done
Small eigenvalue found = 3.135e-03
Small eigenvalue found = 1.261e-02
Small eigenvalue found = 1.612e-02
Small eigenvalue found = 2.815e-02
The first mode is                       ....   70
The number of degrees of freedom        ....   93

    -----------------------------------------------------------------
                    Redundant Internal Coordinates


    -----------------------------------------------------------------
         Definition                    Initial Value    Approx d2E/dq
    -----------------------------------------------------------------
      1. B(C   1,H   0)                  1.1000         0.347070   
      2. B(C   2,C   1)                  1.5311         0.372038   
      3. B(C   3,C   1)                  1.5323         0.370371   
      4. B(O   4,C   3)                  1.3507         0.646497   
      5. B(O   5,C   3)                  1.2239         1.030208   
      6. B(C   6,C   1)                  1.5300         0.373621   
      7. B(C   7,C   6)                  1.4111         0.578136   
      8. B(C   8,C   7)                  1.4133         0.573645   
      9. B(C   9,C   8)                  1.3903         0.624088   
     10. B(C  10,C   9)                  1.3942         0.615287   
     11. B(C  11,C  10)                  1.3994         0.603629   
     12. B(C  11,C   6)                  1.4011         0.599756   
     13. B(C  12,C   8)                  1.4904         0.432079   
     14. B(O  13,C  12)                  1.2282         1.013770   
     15. B(C  14,C  12)                  1.4891         0.434218   
     16. B(C  15,C  14)                  1.4016         0.598634   
     17. B(C  16,C  15)                  1.3946         0.614357   
     18. B(C  17,C  16)                  1.3942         0.615137   
     19. B(C  18,C  17)                  1.3944         0.614831   
     20. B(C  19,C  18)                  1.3962         0.610734   
     21. B(C  19,C  14)                  1.3994         0.603481   
     22. B(H  20,C   2)                  1.0986         0.348965   
     23. B(H  21,C   2)                  1.0943         0.354408   
     24. B(H  22,C   2)                  1.0975         0.350320   
     25. B(H  23,O   4)                  0.9760         0.490325   
     26. B(H  24,C   7)                  1.0859         0.365587   
     27. B(H  25,C   9)                  1.0925         0.356828   
     28. B(H  26,C  10)                  1.0896         0.360673   
     29. B(H  27,C  11)                  1.0910         0.358844   
     30. B(H  28,C  15)                  1.0841         0.367982   
     31. B(H  29,C  16)                  1.0871         0.363998   
     32. B(H  30,C  17)                  1.0856         0.365932   
     33. B(H  31,C  18)                  1.0875         0.363439   
     34. B(H  32,C  19)                  1.0875         0.363472   
     35. A(C   2,C   1,C   3)          108.8500         0.362562   
     36. A(C   3,C   1,C   6)          115.7801         0.362825   
     37. A(H   0,C   1,C   2)          107.4361         0.322146   
     38. A(H   0,C   1,C   3)          104.9651         0.321910   
     39. A(H   0,C   1,C   6)          108.2428         0.322371   
     40. A(C   2,C   1,C   6)          111.0918         0.363103   
     41. A(C   1,C   2,H  21)          111.9060         0.323253   
     42. A(H  20,C   2,H  22)          107.0761         0.288164   
     43. A(C   1,C   2,H  20)          110.6634         0.322434   
     44. A(H  20,C   2,H  21)          107.4386         0.288688   
     45. A(H  21,C   2,H  22)          108.1623         0.288863   
     46. A(C   1,C   2,H  22)          111.3822         0.322639   
     47. A(O   4,C   3,O   5)          120.8966         0.473374   
     48. A(C   1,C   3,O   5)          124.3116         0.430653   
     49. A(C   1,C   3,O   4)          114.7060         0.396456   
     50. A(C   3,O   4,H  23)          114.5142         0.369047   
     51. A(C   7,C   6,C  11)          117.9587         0.426106   
     52. A(C   1,C   6,C  11)          122.1966         0.394389   
     53. A(C   1,C   6,C   7)          119.8030         0.391862   
     54. A(C   8,C   7,H  24)          119.4229         0.349197   
     55. A(C   6,C   7,C   8)          120.8804         0.422727   
     56. A(C   6,C   7,H  24)          119.6956         0.349656   
     57. A(C   7,C   8,C   9)          119.7358         0.428555   
     58. A(C   9,C   8,C  12)          117.8038         0.407458   
     59. A(C   7,C   8,C  12)          122.4586         0.401440   
     60. A(C   8,C   9,C  10)          119.8530         0.433983   
     61. A(C  10,C   9,H  25)          119.9126         0.351910   
     62. A(C   8,C   9,H  25)          120.2328         0.352756   
     63. A(C   9,C  10,H  26)          119.3514         0.352548   
     64. A(C  11,C  10,H  26)          120.2674         0.351410   
     65. A(C   9,C  10,C  11)          120.3812         0.431391   
     66. A(C  10,C  11,H  27)          118.0327         0.351108   
     67. A(C   6,C  11,H  27)          120.8638         0.350726   
     68. A(C   6,C  11,C  10)          121.0977         0.429415   
     69. A(O  13,C  12,C  14)          119.3810         0.441888   
     70. A(C   8,C  12,C  14)          121.2169         0.382356   
     71. A(C   8,C  12,O  13)          119.3378         0.441494   
     72. A(C  15,C  14,C  19)          119.6188         0.429252   
     73. A(C  12,C  14,C  19)          118.7933         0.405400   
     74. A(C  12,C  14,C  15)          121.5231         0.404823   
     75. A(C  14,C  15,C  16)          120.1635         0.430630   
     76. A(C  16,C  15,H  28)          118.3933         0.353657   
     77. A(C  14,C  15,H  28)          121.4294         0.352109   
     78. A(C  15,C  16,C  17)          119.9784         0.432739   
     79. A(C  17,C  16,H  29)          120.0548         0.353082   
     80. A(C  15,C  16,H  29)          119.9592         0.353006   
     81. A(C  16,C  17,C  18)          120.0982         0.432799   
     82. A(C  18,C  17,H  30)          120.0382         0.353369   
     83. A(C  16,C  17,H  30)          119.8558         0.353399   
     84. A(C  17,C  18,C  19)          120.1247         0.432241   
     85. A(C  19,C  18,H  31)          119.9668         0.352561   
     86. A(C  17,C  18,H  31)          119.9071         0.352960   
     87. A(C  14,C  19,C  18)          119.9950         0.430796   
     88. A(C  18,C  19,H  32)          119.6859         0.352566   
     89. A(C  14,C  19,H  32)          120.3170         0.351855   
     90. D(H  21,C   2,C   1,C   6)     59.5759         0.011057   
     91. D(H  21,C   2,C   1,H   0)    -58.6416         0.011057   
     92. D(H  20,C   2,C   1,H   0)     61.1514         0.011057   
     93. D(H  21,C   2,C   1,C   3)   -171.7974         0.011057   
     94. D(H  20,C   2,C   1,C   6)    179.3689         0.011057   
     95. D(H  20,C   2,C   1,C   3)    -52.0044         0.011057   
     96. D(O   4,C   3,C   1,C   2)    179.9699         0.010271   
     97. D(O   4,C   3,C   1,C   6)    -54.0729         0.010271   
     98. D(O   4,C   3,C   1,H   0)     65.1988         0.010271   
     99. D(O   5,C   3,C   1,C   2)      3.3220         0.010271   
    100. D(O   5,C   3,C   1,H   0)   -111.4491         0.010271   
    101. D(H  23,O   4,C   3,C   1)      3.3294         0.030862   
    102. D(H  23,O   4,C   3,O   5)   -179.8972         0.030862   
    103. D(C   7,C   6,C   1,H   0)     26.6289         0.010439   
    104. D(C   7,C   6,C   1,C   2)    -91.0998         0.010439   
    105. D(C   7,C   6,C   1,C   3)    144.0901         0.010439   
    106. D(C  11,C   6,C   1,C   2)     86.5028         0.010439   
    107. D(C  11,C   6,C   1,H   0)   -155.7685         0.010439   
    108. D(H  24,C   7,C   6,C  11)   -177.1388         0.022957   
    109. D(C   8,C   7,C   6,C  11)      2.4781         0.022957   
    110. D(H  24,C   7,C   6,C   1)      0.5645         0.022957   
    111. D(C   8,C   7,C   6,C   1)   -179.8186         0.022957   
    112. D(C  12,C   8,C   7,H  24)     -4.6825         0.022586   
    113. D(C  12,C   8,C   7,C   6)    175.6996         0.022586   
    114. D(C   9,C   8,C   7,H  24)    175.8230         0.022586   
    115. D(C   9,C   8,C   7,C   6)     -3.7949         0.022586   
    116. D(H  25,C   9,C   8,C  12)      2.7105         0.026973   
    117. D(H  25,C   9,C   8,C   7)   -177.7717         0.026973   
    118. D(C  10,C   9,C   8,C  12)   -176.8273         0.026973   
    119. D(C  10,C   9,C   8,C   7)      2.6905         0.026973   
    120. D(C  11,C  10,C   9,C   8)     -0.3660         0.026173   
    121. D(H  26,C  10,C   9,H  25)      0.0378         0.026173   
    122. D(H  26,C  10,C   9,C   8)    179.5771         0.026173   
    123. D(C  11,C  10,C   9,H  25)   -179.9052         0.026173   
    124. D(H  27,C  11,C  10,H  26)     -0.0066         0.025135   
    125. D(H  27,C  11,C  10,C   9)    179.9359         0.025135   
    126. D(C   6,C  11,C  10,H  26)    179.1205         0.025135   
    127. D(C   6,C  11,C  10,C   9)     -0.9369         0.025135   
    128. D(H  27,C  11,C   6,C   7)    178.9778         0.024796   
    129. D(C  10,C  11,C   6,C   7)     -0.1246         0.024796   
    130. D(C  10,C  11,C   6,C   1)   -177.7695         0.024796   
    131. D(H  27,C  11,C   6,C   1)      1.3330         0.024796   
    132. D(C  14,C  12,C   8,C   9)    142.1724         0.012752   
    133. D(C  14,C  12,C   8,C   7)    -37.3313         0.012752   
    134. D(O  13,C  12,C   8,C   9)    -34.8944         0.012752   
    135. D(O  13,C  12,C   8,C   7)    145.6018         0.012752   
    136. D(C  19,C  14,C  12,O  13)    -25.9545         0.012874   
    137. D(C  19,C  14,C  12,C   8)    156.9799         0.012874   
    138. D(C  15,C  14,C  12,O  13)    151.1069         0.012874   
    139. D(C  15,C  14,C  12,C   8)    -25.9587         0.012874   
    140. D(H  28,C  15,C  14,C  19)    176.8261         0.024699   
    141. D(H  28,C  15,C  14,C  12)     -0.2115         0.024699   
    142. D(C  16,C  15,C  14,C  19)     -1.7982         0.024699   
    143. D(C  16,C  15,C  14,C  12)   -178.8359         0.024699   
    144. D(H  29,C  16,C  15,H  28)      1.4704         0.026089   
    145. D(H  29,C  16,C  15,C  14)   -179.8639         0.026089   
    146. D(C  17,C  16,C  15,H  28)   -177.5290         0.026089   
    147. D(C  17,C  16,C  15,C  14)      1.1367         0.026089   
    148. D(H  30,C  17,C  16,H  29)     -0.0390         0.026159   
    149. D(H  30,C  17,C  16,C  15)    178.9594         0.026159   
    150. D(C  18,C  17,C  16,H  29)   -179.0246         0.026159   
    151. D(C  18,C  17,C  16,C  15)     -0.0262         0.026159   
    152. D(C  19,C  18,C  17,C  16)     -0.4151         0.026132   
    153. D(H  31,C  18,C  17,H  30)      0.1612         0.026132   
    154. D(H  31,C  18,C  17,C  16)    179.1449         0.026132   
    155. D(C  19,C  18,C  17,H  30)   -179.3989         0.026132   
    156. D(H  32,C  19,C  18,H  31)     -0.3425         0.025764   
    157. D(H  32,C  19,C  18,C  17)    179.2173         0.025764   
    158. D(C  14,C  19,C  18,H  31)   -179.8147         0.025764   
    159. D(C  14,C  19,C  18,C  17)     -0.2549         0.025764   
    160. D(H  32,C  19,C  14,C  15)   -178.1135         0.025122   
    161. D(H  32,C  19,C  14,C  12)     -0.9949         0.025122   
    162. D(C  18,C  19,C  14,C  15)      1.3553         0.025122   
    163. D(C  18,C  19,C  14,C  12)    178.4739         0.025122   
    -----------------------------------------------------------------

Number of atoms                         .... 33
Number of degrees of freedom            .... 163


         *************************************************************
         *                GEOMETRY OPTIMIZATION CYCLE   1            *
         *************************************************************
---------------------------------
CARTESIAN COORDINATES (ANGSTROEM)
---------------------------------
  H      2.196820   -0.911540    0.640440
  C      2.082740   -0.072300   -0.061510
  C      0.617810    0.370390   -0.013130
  C      2.957330    1.046610    0.514000
  O      4.280940    0.777800    0.528310
  O      2.522150    2.086910    0.989660
  C      2.463940   -0.562300   -1.459860
  C      2.327060   -1.928420   -1.785840
  C      2.675940   -2.406380   -3.069240
  C      3.085580   -1.510930   -4.050730
  C      3.203790   -0.155250   -3.747610
  C      2.905090    0.311300   -2.462550
  C      2.634550   -3.853770   -3.422270
  O      2.317120   -4.186580   -4.561160
  C      3.032820   -4.899460   -2.439830
  C      3.931400   -4.623860   -1.400020
  C      4.303560   -5.631040   -0.510100
  C      3.799730   -6.921430   -0.668080
  C      2.923490   -7.206720   -1.714550
  C      2.540880   -6.199460   -2.602470
  H      0.348650    0.710150    0.996290
  H     -0.063730   -0.443910   -0.277690
  H      0.430420    1.208850   -0.696040
  H      4.525170   -0.075950    0.123360
  H      1.942960   -2.622530   -1.044340
  H      3.322250   -1.867050   -5.056060
  H      3.532160    0.538300   -4.521120
  H      3.011820    1.379290   -2.267150
  H      4.369910   -3.639970   -1.277730
  H      4.999000   -5.413070    0.296480
  H      4.103960   -7.707870    0.015690
  H      2.543310   -8.217440   -1.843150
  H      1.867200   -6.432720   -3.423640

----------------------------
CARTESIAN COORDINATES (A.U.)
----------------------------
  NO LB      ZA    FRAG     MASS         X           Y           Z
   0 H     1.0000    0     1.008    4.151388   -1.722561    1.210256
   1 C     6.0000    0    12.011    3.935808   -0.136627   -0.116237
   2 C     6.0000    0    12.011    1.167492    0.699936   -0.024812
   3 C     6.0000    0    12.011    5.588544    1.977806    0.971319
   4 O     8.0000    0    15.999    8.089804    1.469829    0.998361
   5 O     8.0000    0    15.999    4.766173    3.943688    1.870186
   6 C     6.0000    0    12.011    4.656172   -1.062593   -2.758736
   7 C     6.0000    0    12.011    4.397506   -3.644186   -3.374749
   8 C     6.0000    0    12.011    5.056794   -4.547399   -5.800023
   9 C     6.0000    0    12.011    5.830901   -2.855244   -7.654770
  10 C     6.0000    0    12.011    6.054286   -0.293380   -7.081957
  11 C     6.0000    0    12.011    5.489824    0.588272   -4.653545
  12 C     6.0000    0    12.011    4.978578   -7.282570   -6.467153
  13 O     8.0000    0    15.999    4.378722   -7.911490   -8.619343
  14 C     6.0000    0    12.011    5.731199   -9.258638   -4.610611
  15 C     6.0000    0    12.011    7.429269   -8.737829   -2.645654
  16 C     6.0000    0    12.011    8.132550  -10.641123   -0.963949
  17 C     6.0000    0    12.011    7.180449  -13.079607   -1.262488
  18 C     6.0000    0    12.011    5.524595  -13.618727   -3.240030
  19 C     6.0000    0    12.011    4.801567  -11.715282   -4.917956
  20 H     1.0000    0     1.008    0.658853    1.341989    1.882715
  21 H     1.0000    0     1.008   -0.120432   -0.838868   -0.524758
  22 H     1.0000    0     1.008    0.813376    2.284395   -1.315325
  23 H     1.0000    0     1.008    8.551332   -0.143525    0.233117
  24 H     1.0000    0     1.008    3.671662   -4.955863   -1.973517
  25 H     1.0000    0     1.008    6.278143   -3.528213   -9.554569
  26 H     1.0000    0     1.008    6.674815    1.017240   -8.543679
  27 H     1.0000    0     1.008    5.691515    2.606480   -4.284293
  28 H     1.0000    0     1.008    8.257933   -6.878546   -2.414560
  29 H     1.0000    0     1.008    9.446741  -10.229220    0.560266
  30 H     1.0000    0     1.008    7.755360  -14.565763    0.029650
  31 H     1.0000    0     1.008    4.806159  -15.528711   -3.483049
  32 H     1.0000    0     1.008    3.528497  -12.156079   -6.469742

--------------------------------
INTERNAL COORDINATES (ANGSTROEM)
--------------------------------
 H      0   0   0     0.000000000000     0.00000000     0.00000000
 C      1   0   0     1.100032647925     0.00000000     0.00000000
 C      2   1   0     1.531122126220   107.43609156     0.00000000
 C      2   1   3     1.532344287783   104.96512040   115.75297780
 O      4   2   1     1.350706120627   114.70604480    65.19879141
 O      4   2   1     1.223870155695   124.31160293   248.55087537
 C      2   1   3     1.529966065800   108.24276798   239.95517453
 C      7   2   1     1.411128253987   119.80300502    26.62889159
 C      8   7   2     1.413251066159   120.88039706   180.18135158
 C      9   8   7     1.390308689536   119.73577991   356.20510088
 C     10   9   8     1.394174881749   119.85304095     2.69047383
 C     11  10   9     1.399381933605   120.38118030   359.63404766
 C      9   8   7     1.490396298003   122.45861853   175.69959887
 O     13   9   8     1.228248644656   119.33784514   145.60180200
 C     13   9   8     1.489051685671   121.21692114   322.66865420
 C     15  13   9     1.401644110500   121.52314414   334.04126947
 C     16  15  13     1.394586757574   120.16351965   181.16412167
 C     17  16  15     1.394241263699   119.97839134     1.13669734
 C     18  17  16     1.394376700393   120.09819136   359.97380508
 C     19  18  17     1.396196635901   120.12468132   359.58487698
 H      3   2   1     1.098550271767   110.66340032    61.15136141
 H      3   2   1     1.094336902055   111.90596387   301.35835559
 H      3   2   1     1.097495445002   111.38217076   180.14364358
 H      5   4   2     0.975972262874   114.51418183     3.32935275
 H      8   7   2     1.085883857556   119.69556953     0.56445905
 H     10   9   8     1.092484577557   120.23277559   182.22826436
 H     11  10   9     1.089566968800   119.35136251   179.57711042
 H     12  11  10     1.090951462257   118.03268325   179.93591391
 H     16  15  13     1.084105804938   121.42936952   359.78850876
 H     17  16  15     1.087069000064   119.95923000   180.13608655
 H     18  17  16     1.085626629832   119.85583791   178.95939507
 H     19  18  17     1.087487798001   119.90708708   179.14491371
 H     20  19  18     1.087462706901   119.68591544   179.21726704

---------------------------
INTERNAL COORDINATES (A.U.)
---------------------------
 H      0   0   0     0.000000000000     0.00000000     0.00000000
 C      1   0   0     2.078760442950     0.00000000     0.00000000
 C      2   1   0     2.893401496143   107.43609156     0.00000000
 C      2   1   3     2.895711046788   104.96512040   115.75297780
 O      4   2   1     2.552464655397   114.70604480    65.19879141
 O      4   2   1     2.312779417742   124.31160293   248.55087537
 C      2   1   3     2.891216858555   108.24276798   239.95517453
 C      7   2   1     2.666645939874   119.80300502    26.62889159
 C      8   7   2     2.670657473513   120.88039706   180.18135158
 C      9   8   7     2.627302664834   119.73577991   356.20510088
 C     10   9   8     2.634608709298   119.85304095     2.69047383
 C     11  10   9     2.644448611271   120.38118030   359.63404766
 C      9   8   7     2.816440834235   122.45861853   175.69959887
 O     13   9   8     2.321053562760   119.33784514   145.60180200
 C     13   9   8     2.813899885172   121.21692114   322.66865420
 C     15  13   9     2.648723506069   121.52314414   334.04126947
 C     16  15  13     2.635387041808   120.16351965   181.16412167
 C     17  16  15     2.634734153003   119.97839134     1.13669734
 C     18  17  16     2.634990091264   120.09819136   359.97380508
 C     19  18  17     2.638429270954   120.12468132   359.58487698
 H      3   2   1     2.075959157985   110.66340032    61.15136141
 H      3   2   1     2.067997043128   111.90596387   301.35835559
 H      3   2   1     2.073965824280   111.38217076   180.14364358
 H      5   4   2     1.844320291136   114.51418183     3.32935275
 H      8   7   2     2.052023104026   119.69556953     0.56445905
 H     10   9   8     2.064496657115   120.23277559   182.22826436
 H     11  10   9     2.058983175599   119.35136251   179.57711042
 H     12  11  10     2.061599489066   118.03268325   179.93591391
 H     16  15  13     2.048663071527   121.42936952   359.78850876
 H     17  16  15     2.054262698796   119.95923000   180.13608655
 H     18  17  16     2.051537014074   119.85583791   178.95939507
 H     19  18  17     2.055054112202   119.90708708   179.14491371
 H     20  19  18     2.055006696895   119.68591544   179.21726704

---------------------
BASIS SET INFORMATION
---------------------
There are 3 groups of distinct atoms

 Group   1 Type H   : 5s1p contracted to 3s1p pattern {311/1}
 Group   2 Type C   : 12s6p1d contracted to 5s4p1d pattern {63111/3111/1}
 Group   3 Type O   : 12s6p1d contracted to 5s4p1d pattern {63111/3111/1}

Atom   0H    basis set group =>   1
Atom   1C    basis set group =>   2
Atom   2C    basis set group =>   2
Atom   3C    basis set group =>   2
Atom   4O    basis set group =>   3
Atom   5O    basis set group =>   3
Atom   6C    basis set group =>   2
Atom   7C    basis set group =>   2
Atom   8C    basis set group =>   2
Atom   9C    basis set group =>   2
Atom  10C    basis set group =>   2
Atom  11C    basis set group =>   2
Atom  12C    basis set group =>   2
Atom  13O    basis set group =>   3
Atom  14C    basis set group =>   2
Atom  15C    basis set group =>   2
Atom  16C    basis set group =>   2
Atom  17C    basis set group =>   2
Atom  18C    basis set group =>   2
Atom  19C    basis set group =>   2
Atom  20H    basis set group =>   1
Atom  21H    basis set group =>   1
Atom  22H    basis set group =>   1
Atom  23H    basis set group =>   1
Atom  24H    basis set group =>   1
Atom  25H    basis set group =>   1
Atom  26H    basis set group =>   1
Atom  27H    basis set group =>   1
Atom  28H    basis set group =>   1
Atom  29H    basis set group =>   1
Atom  30H    basis set group =>   1
Atom  31H    basis set group =>   1
Atom  32H    basis set group =>   1
---------------------------------
AUXILIARY/J BASIS SET INFORMATION
---------------------------------
There are 3 groups of distinct atoms

 Group   1 Type H   : 5s2p1d contracted to 3s1p1d pattern {311/2/1}
 Group   2 Type C   : 12s5p4d2f1g contracted to 6s4p3d1f1g pattern {711111/2111/211/2/1}
 Group   3 Type O   : 12s5p4d2f1g contracted to 6s4p3d1f1g pattern {711111/2111/211/2/1}

Atom   0H    basis set group =>   1
Atom   1C    basis set group =>   2
Atom   2C    basis set group =>   2
Atom   3C    basis set group =>   2
Atom   4O    basis set group =>   3
Atom   5O    basis set group =>   3
Atom   6C    basis set group =>   2
Atom   7C    basis set group =>   2
Atom   8C    basis set group =>   2
Atom   9C    basis set group =>   2
Atom  10C    basis set group =>   2
Atom  11C    basis set group =>   2
Atom  12C    basis set group =>   2
Atom  13O    basis set group =>   3
Atom  14C    basis set group =>   2
Atom  15C    basis set group =>   2
Atom  16C    basis set group =>   2
Atom  17C    basis set group =>   2
Atom  18C    basis set group =>   2
Atom  19C    basis set group =>   2
Atom  20H    basis set group =>   1
Atom  21H    basis set group =>   1
Atom  22H    basis set group =>   1
Atom  23H    basis set group =>   1
Atom  24H    basis set group =>   1
Atom  25H    basis set group =>   1
Atom  26H    basis set group =>   1
Atom  27H    basis set group =>   1
Atom  28H    basis set group =>   1
Atom  29H    basis set group =>   1
Atom  30H    basis set group =>   1
Atom  31H    basis set group =>   1
Atom  32H    basis set group =>   1
------------------------------------------------------------------------------
                             ORCA STARTUP CALCULATIONS
                           -- RI-GTO INTEGRALS CHOSEN --
------------------------------------------------------------------------------
------------------------------------------------------------------------------
                   ___                                                        
                  /   \      - P O W E R E D   B Y -                         
                 /     \                                                     
                 |  |  |   _    _      __       _____    __    __             
                 |  |  |  | |  | |    /  \     |  _  \  |  |  /  |          
                  \  \/   | |  | |   /    \    | | | |  |  | /  /          
                 / \  \   | |__| |  /  /\  \   | |_| |  |  |/  /          
                |  |  |   |  __  | /  /__\  \  |    /   |      \           
                |  |  |   | |  | | |   __   |  |    \   |  |\   \          
                \     /   | |  | | |  |  |  |  | |\  \  |  | \   \       
                 \___/    |_|  |_| |__|  |__|  |_| \__\ |__|  \__/        
                                                                              
                      - O R C A' S   B I G   F R I E N D -                    
                                      &                                       
                       - I N T E G R A L  F E E D E R -                       
                                                                              
 v1 FN, 2020, v2 2021, v3 2022-2024                                           
------------------------------------------------------------------------------


----------------------
SHARK INTEGRAL PACKAGE
----------------------

Number of atoms                             ...     33
Number of basis functions                   ...    502
Number of shells                            ...    246
Maximum angular momentum                    ...      2
Integral batch strategy                     ... SHARK/LIBINT Hybrid
RI-J (if used) integral strategy            ... SPLIT-RIJ (Revised 2003 algorithm where possible)
Printlevel                                  ...      1
Contraction scheme used                     ... SEGMENTED contraction
Prescreening option                         ... SCHWARTZ
   Thresh                                   ... 2.500e-11
   Tcut                                     ... 2.500e-12
   Tpresel                                  ... 2.500e-12 
Coulomb Range Separation                    ... NOT USED
Exchange Range Separation                   ... NOT USED
Multipole approximations                    ... NOT USED
Finite Nucleus Model                        ... NOT USED
CABS basis                                  ... NOT available
Auxiliary Coulomb fitting basis             ... AVAILABLE
   # of basis functions in Aux-J            ...   1085
   # of shells in Aux-J                     ...    355
   Maximum angular momentum in Aux-J        ...      4
Auxiliary J/K fitting basis                 ... NOT available
Auxiliary Correlation fitting basis         ... NOT available
Auxiliary 'external' fitting basis          ... NOT available

Checking pre-screening integrals            ... done (  0.0 sec) Dimension = 246
Check shell pair data                       ... done (  0.0 sec)
Shell pair information
Shell pair cut-off parameter TPreSel        ...   2.5e-12
Total number of shell pairs                 ...     30381
Shell pairs after pre-screening             ...     23550
Total number of primitive shell pairs       ...     99676
Primitive shell pairs kept                  ...     51761
          la=0 lb=0:   7135 shell pairs
          la=1 lb=0:   9778 shell pairs
          la=1 lb=1:   3374 shell pairs
          la=2 lb=0:   1843 shell pairs
          la=2 lb=1:   1293 shell pairs
          la=2 lb=2:    127 shell pairs

Calculating one electron integrals          ... done (  0.1 sec)
Calculating RI/J V-Matrix + Cholesky decomp.... done (  0.0 sec)
Calculating Nuclear repulsion               ... done (  0.0 sec) ENN=   1307.795155383169 Eh

Diagonalization of the overlap matrix:
Smallest eigenvalue                        ... 6.209e-07
Time for diagonalization                   ...    0.015 sec
Threshold for overlap eigenvalues          ... 1.000e-07
Number of eigenvalues below threshold      ... 0

IMPORTANT:
Smallest eigenvalue of S below the DiffSThresh (1.000e-06) while
Thresh>1e-12 and/or TCut>1e-13! In order to avoid SCF convergence issues,
Thresh will be set to at least 1e-12 and TCut to at least 1e-13.
This can be turned off by adding %SCF DiffSThresh -1 END to the input.

Time for construction of square roots      ...    0.011 sec
Total time needed                          ...    0.027 sec

-------------------
DFT GRID GENERATION
-------------------

General Integration Accuracy     IntAcc      ... 4.388
Radial Grid Type                 RadialGrid  ... OptM3 with GC (2021)
Angular Grid (max. ang.)         AngularGrid ... 4 (Lebedev-302)
Angular grid pruning method      GridPruning ... 4 (adaptive)
Weight generation scheme         WeightScheme... mBecke (2022)
Basis function cutoff            BFCut       ... 1.0000e-11
Integration weight cutoff        WCut        ... 1.0000e-14
Partially contracted basis set               ... off
Rotationally invariant grid construction     ... off
Angular grids for H and He will be reduced by one unit
Diffuse basis detected: some atoms will have their outermost
                        angular grid increased by 1.

Total number of grid points                  ...   163147
Total number of batches                      ...     2567
Average number of points per batch           ...       63
Average number of grid points per atom       ...     4944
Initializing property integral containers    ... done (  0.0 sec)

SHARK setup successfully completed in   1.4 seconds

Maximum memory used throughout the entire STARTUP-calculation: 85.9 MB
-------------------------------------------------------------------------------
                                 ORCA GUESS
                   Start orbitals & Density for SCF / CASSCF
-------------------------------------------------------------------------------

------------
SCF SETTINGS
------------
Hamiltonian:
 Density Functional     Method          .... DFT(GTOs)
 Exchange Functional    Exchange        .... TPSS
 Correlation Functional Correlation     .... TPSS
 LDA part of GGA corr.  LDAOpt          .... PW91-LDA
 Gradients option       PostSCFGGA      .... off
   NL short-range parameter             ....  5.000000
 RI-approximation to the Coulomb term is turned on
   Number of AuxJ basis functions       .... 1085


General Settings:
 Integral files         IntName         .... Dexketoprofen\Dexketoprofen_TPSS_6-311+G\Dexketoprofen_TPSS_6-311+G.orcainp
 Hartree-Fock type      HFTyp           .... RHF
 Total Charge           Charge          ....    0
 Multiplicity           Mult            ....    1
 Number of Electrons    NEL             ....  134
 Basis Dimension        Dim             ....  502
 Nuclear Repulsion      ENuc            ....   1307.7951553832 Eh

Convergence Acceleration:
 AO-DIIS                CNVDIIS         .... on
   Start iteration      DIISMaxIt       ....    12
   Startup error        DIISStart       ....  0.200000
   # of expansion vecs  DIISMaxEq       ....     5
   Bias factor          DIISBfac        ....   1.050
   Max. coefficient     DIISMaxC        ....  10.000
 MO-DIIS                CNVKDIIS        .... off
 Trust-Rad. Augm. Hess. CNVTRAH         .... auto
   Auto Start mean grad. ratio tolernc. ....  1.125000
   Auto Start start iteration           ....    50
   Auto Start num. interpolation iter.  ....    10
   Max. Number of Micro iterations      ....    24
   Max. Number of Macro iterations      .... Maxiter - #DIIS iter
   Number of Davidson start vectors     ....     2
   Converg. threshold    (grad. norm)   ....   1.000e-05
   Grad. Scal. Fac. for Micro threshold ....   0.100
   Minimum threshold for Micro iter.    ....   1.000e-02
   NR start threshold (gradient norm)   ....   1.000e-04
   Initial trust radius                 ....   0.400
   Minimum AH scaling param. (alpha)    ....   1.000
   Maximum AH scaling param. (alpha)    .... 1000.000
   Quad. conv. algorithm                .... NR
   White noise on init. David. guess    .... on
   Maximum white noise                  ....   0.010
   Pseudo random numbers                .... off
   Inactive MOs                         .... canonical
   Orbital update algorithm             .... Taylor
   Preconditioner                       .... Diag
   Full preconditioner red. dimension   ....   250
 SOSCF                  CNVSOSCF        .... on
   Start iteration      SOSCFMaxIt      ....   150
   Startup grad/error   SOSCFStart      ....  0.003300
   Hessian update       SOSCFHessUp     .... L-BFGS
 Level Shifting         CNVShift        .... on
   Level shift para.    LevelShift      ....    0.2500
   Turn off err/grad.   ShiftErr        ....    0.0010
 Zerner damping         CNVZerner       .... off
 Static damping         CNVDamp         .... on
   Fraction old density DampFac         ....    0.7000
   Max. Damping (<1)    DampMax         ....    0.9800
   Min. Damping (>=0)   DampMin         ....    0.0000
   Turn off err/grad.   DampErr         ....    0.1000

SCF Procedure:
 Maximum # iterations   MaxIter         ....   125
 SCF integral mode      SCFMode         .... Direct
   Integral package                     .... SHARK and LIBINT hybrid scheme
 Reset frequency        DirectResetFreq ....    20
 Integral Threshold     Thresh          ....  1.000e-12 Eh
 Primitive CutOff       TCut            ....  1.000e-13 Eh

Convergence Tolerance:
 Convergence Check Mode ConvCheckMode   .... Total+1el-Energy
 Convergence forced     ConvForced      .... 0
 Energy Change          TolE            ....  1.000e-08 Eh
 1-El. energy change                    ....  1.000e-05 Eh
 Orbital Gradient       TolG            ....  1.000e-05
 Orbital Rotation angle TolX            ....  1.000e-05
 DIIS Error             TolErr          ....  5.000e-07

------------------------------
INITIAL GUESS: MODEL POTENTIAL
------------------------------
Loading Hartree-Fock densities                     ... done
Calculating cut-offs                               ... done
Initializing the effective Hamiltonian             ... done
Setting up the integral package (SHARK)            ... done
Starting the Coulomb interaction                   ... done (   0.6 sec)
Making the grid                                    ... done (   0.4 sec)
Mapping shells                                     ... done
Starting the XC term evaluation                    ... done (   0.9 sec)
  promolecular density results
     # of electrons  =    133.998051514
     EX              =   -110.371084871
     EC              =     -4.475783517
     EX+EC           =   -114.846868388
Transforming the Hamiltonian                       ... done (   0.0 sec)
Diagonalizing the Hamiltonian                      ... done (   0.0 sec)
Back transforming the eigenvectors                 ... done (   0.0 sec)
Now organizing SCF variables                       ... done
                      ------------------
                      INITIAL GUESS DONE (   2.0 sec)
                      ------------------
             **** ENERGY FILE WAS UPDATED (Dexketoprofen\Dexketoprofen_TPSS_6-311+G\Dexketoprofen_TPSS_6-311+G.orcainp.en.tmp) ****
Finished Guess after   2.1 sec
Maximum memory used throughout the entire GUESS-calculation: 54.6 MB

-------------------------------------------------------------------------------------------
                                      ORCA LEAN-SCF
                              memory conserving SCF solver
-------------------------------------------------------------------------------------------

--------------------
CPCM SOLVATION MODEL
--------------------
CPCM parameters:
  Epsilon                                         ...      80.1510
  Refrac                                          ...       1.3328
  Rsolv                                           ...       1.3000
  Surface type                                    ... GAUSSIAN VDW
  Discretization scheme                           ... Constant charge density
    Threshold for H atoms                         ...       5.0000 (charges/Ang^2)
    Threshold for non-H atoms                     ...       5.0000 (charges/Ang^2)
  Epsilon function type                           ...         CPCM
Solvent:                                          ... WATER
Radii:
  Scheme                                          ... Element-dependent radii
  Radius for H  used is    2.4944 Bohr (=   1.3200 Ang.)
  Radius for C  used is    3.8550 Bohr (=   2.0400 Ang.)
  Radius for O  used is    3.4469 Bohr (=   1.8240 Ang.)
Calculating surface                               ...        done! (  0.0s)
Cavity surface points                             ...         2978
Cavity Volume                                     ...    2094.2618
Cavity Surface-area                               ...    1087.9373
Calculating surface distance matrix               ...        done! (  0.0s)
Performing Cholesky decomposition & store         ...        done! (  0.2s)
Overall time for CPCM initialization              ...                 0.2s

----------------------------------------D-I-I-S--------------------------------------------
Iteration    Energy (Eh)           Delta-E    RMSDP     MaxDP     DIISErr   Damp  Time(sec)
-------------------------------------------------------------------------------------------
               ***  Starting incremental Fock matrix formation  ***
    1    -843.7842064063961516     0.00e+00  1.51e-02  1.99e+00  2.84e-01  0.700  10.5
    2    -843.9914480021948293    -2.07e-01  9.56e-03  1.07e+00  8.77e-02  0.700   9.3
                               ***Turning on AO-DIIS***
    3    -844.0601783089373384    -6.87e-02  5.26e-03  4.25e-01  2.70e-02  0.700   9.0
    4    -844.1053416157878928    -4.52e-02  1.13e-02  1.28e+00  1.43e-02  0.000   8.6
    5    -844.2061197545235700    -1.01e-01  4.09e-03  4.22e-01  5.70e-03  0.000   8.8
                              *** Initializing SOSCF ***
---------------------------------------S-O-S-C-F--------------------------------------
Iteration    Energy (Eh)           Delta-E    RMSDP     MaxDP     MaxGrad    Time(sec)
--------------------------------------------------------------------------------------
    6    -844.2070137588475518    -8.94e-04  1.23e-03  1.18e-01  3.20e-03     8.2
               *** Restarting incremental Fock matrix formation ***
    7    -844.2070702767246075    -5.65e-05  9.57e-04  8.70e-02  7.80e-04    10.2
    8    -844.2070201703222665     5.01e-05  5.19e-04  9.49e-02  2.15e-03     7.5
    9    -844.2070854321095794    -6.53e-05  2.91e-04  5.00e-02  1.45e-04     7.0
   10    -844.2070827845304848     2.65e-06  2.47e-04  5.09e-02  2.05e-04     6.9
   11    -844.2070865939226678    -3.81e-06  8.46e-05  9.49e-03  2.69e-05     6.7
   12    -844.2070864817305846     1.12e-07  4.93e-05  4.06e-03  4.18e-05     6.5
   13    -844.2070867185366296    -2.37e-07  7.05e-05  9.19e-03  9.79e-06     6.3
   14    -844.2070866728081455     4.57e-08  2.19e-05  1.51e-03  2.36e-05     6.1
   15    -844.2070867187549084    -4.59e-08  1.13e-04  2.56e-02  4.00e-06     5.9
   16    -844.2070867083339181     1.04e-08  2.80e-05  2.73e-03  8.25e-06     5.6
   17    -844.2070867338134121    -2.55e-08  1.77e-04  4.61e-02  4.81e-07     5.5
                  *** Gradient check signals convergence ***

               *****************************************************
               *                     SUCCESS                       *
               *           SCF CONVERGED AFTER  17 CYCLES          *
               *****************************************************

             **** ENERGY FILE WAS UPDATED (Dexketoprofen\Dexketoprofen_TPSS_6-311+G\Dexketoprofen_TPSS_6-311+G.orcainp.en.tmp) ****

----------------
TOTAL SCF ENERGY
----------------

Total Energy       :       -844.20708673381341 Eh          -22972.04271 eV

Components:
Nuclear Repulsion  :       1307.79515538316900 Eh           35586.91538 eV
Electronic Energy  :      -2151.97093417071301 Eh          -58558.10616 eV
One Electron Energy:      -3741.59570535809462 Eh         -101813.99527 eV
Two Electron Energy:       1589.62477118738184 Eh           43255.88911 eV
CPCM Dielectric    :         -0.03130794627004 Eh              -0.85193 eV

Virial components:
Potential Energy   :      -1685.17056721628387 Eh          -45855.82240 eV
Kinetic Energy     :        840.96348048247046 Eh           22883.77969 eV
Virial Ratio       :          2.00385701201850

DFT components:
N(Alpha)           :       66.999957110828 electrons
N(Beta)            :       66.999957110828 electrons
N(Total)           :      133.999914221656 electrons
E(X)               :     -113.619463916337 Eh       
E(C)               :       -4.489548570960 Eh       
E(XC)              :     -118.109012487297 Eh       

CPCM Solvation Model Properties:
Surface-charge          :         -0.03143885339661
Corrected charge        :          0.00000000000000
Outlying charge corr.   :          0.00005479786252 Eh               0.00149 eV
Free-energy (cav+disp)  :  This term is not implemented in the current solvation scheme

---------------
SCF CONVERGENCE
---------------

  Last Energy change         ...    2.5479e-08  Tolerance :   1.0000e-08
  Last MAX-Density change    ...    4.6115e-02  Tolerance :   1.0000e-07
  Last RMS-Density change    ...    1.7702e-04  Tolerance :   5.0000e-09
  Last DIIS Error            ...    3.1991e-03  Tolerance :   5.0000e-07
  Last Orbital Gradient      ...    4.8083e-07  Tolerance :   1.0000e-05
  Last Orbital Rotation      ...    1.7001e-06  Tolerance :   1.0000e-05


----------------
ORBITAL ENERGIES
----------------

  NO   OCC          E(Eh)            E(eV) 
   0   2.0000     -18.936661      -515.2927 
   1   2.0000     -18.885119      -513.8902 
   2   2.0000     -18.877669      -513.6875 
   3   2.0000     -10.127698      -275.5887 
   4   2.0000     -10.080688      -274.3095 
   5   2.0000     -10.020904      -272.6827 
   6   2.0000     -10.017648      -272.5941 
   7   2.0000     -10.009485      -272.3719 
   8   2.0000     -10.008301      -272.3397 
   9   2.0000     -10.007406      -272.3153 
  10   2.0000     -10.004708      -272.2419 
  11   2.0000     -10.002705      -272.1874 
  12   2.0000     -10.001813      -272.1632 
  13   2.0000     -10.001533      -272.1555 
  14   2.0000     -10.000279      -272.1214 
  15   2.0000      -9.999898      -272.1110 
  16   2.0000      -9.997689      -272.0510 
  17   2.0000      -9.997209      -272.0379 
  18   2.0000      -9.981611      -271.6134 
  19   2.0000      -1.042003       -28.3544 
  20   2.0000      -0.982635       -26.7389 
  21   2.0000      -0.963958       -26.2306 
  22   2.0000      -0.817379       -22.2420 
  23   2.0000      -0.809076       -22.0161 
  24   2.0000      -0.756944       -20.5975 
  25   2.0000      -0.725884       -19.7523 
  26   2.0000      -0.704932       -19.1822 
  27   2.0000      -0.700288       -19.0558 
  28   2.0000      -0.688410       -18.7326 
  29   2.0000      -0.615480       -16.7481 
  30   2.0000      -0.612274       -16.6608 
  31   2.0000      -0.579135       -15.7591 
  32   2.0000      -0.575900       -15.6710 
  33   2.0000      -0.566890       -15.4259 
  34   2.0000      -0.552684       -15.0393 
  35   2.0000      -0.519446       -14.1348 
  36   2.0000      -0.494700       -13.4615 
  37   2.0000      -0.470207       -12.7950 
  38   2.0000      -0.463392       -12.6095 
  39   2.0000      -0.440239       -11.9795 
  40   2.0000      -0.433918       -11.8075 
  41   2.0000      -0.425030       -11.5657 
  42   2.0000      -0.422468       -11.4959 
  43   2.0000      -0.415454       -11.3051 
  44   2.0000      -0.405629       -11.0377 
  45   2.0000      -0.398140       -10.8339 
  46   2.0000      -0.390115       -10.6156 
  47   2.0000      -0.389737       -10.6053 
  48   2.0000      -0.383673       -10.4403 
  49   2.0000      -0.383350       -10.4315 
  50   2.0000      -0.368027       -10.0145 
  51   2.0000      -0.359980        -9.7955 
  52   2.0000      -0.342564        -9.3216 
  53   2.0000      -0.337611        -9.1869 
  54   2.0000      -0.331233        -9.0133 
  55   2.0000      -0.323690        -8.8081 
  56   2.0000      -0.322680        -8.7806 
  57   2.0000      -0.321275        -8.7423 
  58   2.0000      -0.313056        -8.5187 
  59   2.0000      -0.307634        -8.3711 
  60   2.0000      -0.295121        -8.0307 
  61   2.0000      -0.254824        -6.9341 
  62   2.0000      -0.246004        -6.6941 
  63   2.0000      -0.245805        -6.6887 
  64   2.0000      -0.241934        -6.5834 
  65   2.0000      -0.236793        -6.4435 
  66   2.0000      -0.222306        -6.0493 
  67   0.0000      -0.103266        -2.8100 
  68   0.0000      -0.057385        -1.5615 
  69   0.0000      -0.053545        -1.4570 
  70   0.0000      -0.047292        -1.2869 
  71   0.0000      -0.042488        -1.1561 
  72   0.0000      -0.010758        -0.2927 
  73   0.0000       0.002732         0.0743 
  74   0.0000       0.005566         0.1515 
  75   0.0000       0.010057         0.2737 
  76   0.0000       0.014396         0.3917 
  77   0.0000       0.022381         0.6090 
*Only the first 10 virtual orbitals were printed.

                    ********************************
                    * MULLIKEN POPULATION ANALYSIS *
                    ********************************

-----------------------
MULLIKEN ATOMIC CHARGES
-----------------------
   0 H :    0.243808
   1 C :    0.021023
   2 C :   -0.841333
   3 C :   -0.124007
   4 O :   -0.159594
   5 O :   -0.313078
   6 C :    1.509545
   7 C :   -2.001409
   8 C :    1.802727
   9 C :    0.194970
  10 C :   -0.397177
  11 C :   -0.882696
  12 C :   -1.190139
  13 O :   -0.234632
  14 C :    1.706549
  15 C :   -1.189921
  16 C :   -0.365012
  17 C :   -0.169523
  18 C :   -0.249745
  19 C :    0.209234
  20 H :    0.183721
  21 H :    0.177696
  22 H :    0.196875
  23 H :    0.319383
  24 H :    0.183256
  25 H :    0.166309
  26 H :    0.170205
  27 H :    0.173898
  28 H :    0.196717
  29 H :    0.164801
  30 H :    0.167210
  31 H :    0.166557
  32 H :    0.163781
Sum of atomic charges:   -0.0000000

--------------------------------
MULLIKEN REDUCED ORBITAL CHARGES
--------------------------------
  0 H s       :     0.734655  s :     0.734655
      pz      :     0.007734  p :     0.021537
      px      :     0.004388
      py      :     0.009414

  1 C s       :     3.166720  s :     3.166720
      pz      :     0.899872  p :     2.744196
      px      :     0.840965
      py      :     1.003359
      dz2     :     0.012094  d :     0.068061
      dxz     :     0.013544
      dyz     :     0.016198
      dx2y2   :     0.011097
      dxy     :     0.015128

  2 C s       :     3.644489  s :     3.644489
      pz      :     1.120624  p :     3.150796
      px      :     0.935606
      py      :     1.094566
      dz2     :     0.009494  d :     0.046048
      dxz     :     0.006241
      dyz     :     0.010239
      dx2y2   :     0.008370
      dxy     :     0.011704

  3 C s       :     3.526504  s :     3.526504
      pz      :     0.856614  p :     2.405417
      px      :     0.740168
      py      :     0.808635
      dz2     :     0.018552  d :     0.192087
      dxz     :     0.031835
      dyz     :     0.025200
      dx2y2   :     0.058597
      dxy     :     0.057903

  4 O s       :     3.666717  s :     3.666717
      pz      :     1.668922  p :     4.480721
      px      :     1.338412
      py      :     1.473386
      dz2     :     0.001424  d :     0.012156
      dxz     :     0.001932
      dyz     :     0.002014
      dx2y2   :     0.005327
      dxy     :     0.001459

  5 O s       :     3.868695  s :     3.868695
      pz      :     1.393291  p :     4.429300
      px      :     1.709764
      py      :     1.326246
      dz2     :     0.002198  d :     0.015084
      dxz     :     0.001284
      dyz     :     0.004121
      dx2y2   :     0.003770
      dxy     :     0.003710

  6 C s       :     1.801685  s :     1.801685
      pz      :     0.804122  p :     2.618851
      px      :     0.906862
      py      :     0.907868
      dz2     :     0.018165  d :     0.069919
      dxz     :     0.008820
      dyz     :     0.021825
      dx2y2   :     0.009942
      dxy     :     0.011167

  7 C s       :     4.231241  s :     4.231241
      pz      :     1.178960  p :     3.713577
      px      :     1.012932
      py      :     1.521685
      dz2     :     0.012154  d :     0.056591
      dxz     :     0.007632
      dyz     :     0.020248
      dx2y2   :     0.007253
      dxy     :     0.009303

  8 C s       :     1.990301  s :     1.990301
      pz      :     0.829234  p :     2.138967
      px      :     0.879148
      py      :     0.430584
      dz2     :     0.018757  d :     0.068005
      dxz     :     0.010616
      dyz     :     0.019893
      dx2y2   :     0.011466
      dxy     :     0.007274

  9 C s       :     3.166032  s :     3.166032
      pz      :     1.001591  p :     2.579646
      px      :     0.929360
      py      :     0.648695
      dz2     :     0.014667  d :     0.059351
      dxz     :     0.005345
      dyz     :     0.019445
      dx2y2   :     0.009114
      dxy     :     0.010781

 10 C s       :     3.541750  s :     3.541750
      pz      :     0.915600  p :     2.797170
      px      :     0.982711
      py      :     0.898859
      dz2     :     0.012973  d :     0.058258
      dxz     :     0.007346
      dyz     :     0.021774
      dx2y2   :     0.007381
      dxy     :     0.008784

 11 C s       :     3.604110  s :     3.604110
      pz      :     1.264345  p :     3.220671
      px      :     0.950130
      py      :     1.006197
      dz2     :     0.017026  d :     0.057914
      dxz     :     0.010168
      dyz     :     0.016649
      dx2y2   :     0.009031
      dxy     :     0.005042

 12 C s       :     3.867243  s :     3.867243
      pz      :     0.932346  p :     3.180754
      px      :     0.957949
      py      :     1.290459
      dz2     :     0.035682  d :     0.142143
      dxz     :     0.024546
      dyz     :     0.053421
      dx2y2   :     0.014035
      dxy     :     0.014459

 13 O s       :     3.854153  s :     3.854153
      pz      :     1.287851  p :     4.365788
      px      :     1.336952
      py      :     1.740985
      dz2     :     0.005793  d :     0.014692
      dxz     :     0.004112
      dyz     :     0.003607
      dx2y2   :     0.000561
      dxy     :     0.000619

 14 C s       :     2.209834  s :     2.209834
      pz      :     1.008601  p :     2.015251
      px      :     0.809679
      py      :     0.196972
      dz2     :     0.012409  d :     0.068366
      dxz     :     0.008487
      dyz     :     0.020103
      dx2y2   :     0.013820
      dxy     :     0.013547

 15 C s       :     3.652063  s :     3.652063
      pz      :     1.262271  p :     3.479012
      px      :     1.048139
      py      :     1.168603
      dz2     :     0.014908  d :     0.058846
      dxz     :     0.009063
      dyz     :     0.012148
      dx2y2   :     0.011113
      dxy     :     0.011614

 16 C s       :     3.430178  s :     3.430178
      pz      :     0.982915  p :     2.876359
      px      :     0.989375
      py      :     0.904069
      dz2     :     0.009676  d :     0.058475
      dxz     :     0.008813
      dyz     :     0.015076
      dx2y2   :     0.012718
      dxy     :     0.012192

 17 C s       :     3.257901  s :     3.257901
      pz      :     0.953447  p :     2.852308
      px      :     0.931516
      py      :     0.967346
      dz2     :     0.010046  d :     0.059314
      dxz     :     0.007182
      dyz     :     0.017880
      dx2y2   :     0.011927
      dxy     :     0.012280

 18 C s       :     3.396265  s :     3.396265
      pz      :     0.861406  p :     2.795029
      px      :     0.965294
      py      :     0.968329
      dz2     :     0.014073  d :     0.058451
      dxz     :     0.008820
      dyz     :     0.013066
      dx2y2   :     0.011478
      dxy     :     0.011014

 19 C s       :     3.155207  s :     3.155207
      pz      :     0.937064  p :     2.577043
      px      :     0.958221
      py      :     0.681758
      dz2     :     0.010368  d :     0.058515
      dxz     :     0.008615
      dyz     :     0.014527
      dx2y2   :     0.012556
      dxy     :     0.012450

 20 H s       :     0.794382  s :     0.794382
      pz      :     0.010990  p :     0.021897
      px      :     0.004911
      py      :     0.005995

 21 H s       :     0.800482  s :     0.800482
      pz      :     0.005583  p :     0.021822
      px      :     0.007482
      py      :     0.008757

 22 H s       :     0.781623  s :     0.781623
      pz      :     0.007672  p :     0.021502
      px      :     0.004584
      py      :     0.009246

 23 H s       :     0.619832  s :     0.619832
      pz      :     0.018723  p :     0.060785
      px      :     0.015608
      py      :     0.026454

 24 H s       :     0.792014  s :     0.792014
      pz      :     0.009214  p :     0.024730
      px      :     0.006604
      py      :     0.008912

 25 H s       :     0.809364  s :     0.809364
      pz      :     0.012952  p :     0.024327
      px      :     0.005739
      py      :     0.005636

 26 H s       :     0.805690  s :     0.805690
      pz      :     0.009433  p :     0.024105
      px      :     0.006321
      py      :     0.008351

 27 H s       :     0.801829  s :     0.801829
      pz      :     0.004630  p :     0.024273
      px      :     0.005468
      py      :     0.014175

 28 H s       :     0.778572  s :     0.778572
      pz      :     0.004854  p :     0.024711
      px      :     0.006546
      py      :     0.013311

 29 H s       :     0.811018  s :     0.811018
      pz      :     0.010272  p :     0.024181
      px      :     0.009170
      py      :     0.004739

 30 H s       :     0.808693  s :     0.808693
      pz      :     0.008704  p :     0.024098
      px      :     0.005757
      py      :     0.009636

 31 H s       :     0.809316  s :     0.809316
      pz      :     0.004850  p :     0.024126
      px      :     0.006280
      py      :     0.012997

 32 H s       :     0.811588  s :     0.811588
      pz      :     0.011044  p :     0.024631
      px      :     0.008840
      py      :     0.004747



                     *******************************
                     * LOEWDIN POPULATION ANALYSIS *
                     *******************************

----------------------
LOEWDIN ATOMIC CHARGES
----------------------
   0 H :    0.117192
   1 C :   -0.115599
   2 C :   -0.078881
   3 C :   -0.006649
   4 O :   -0.046299
   5 O :   -0.215162
   6 C :   -0.106664
   7 C :   -0.024190
   8 C :   -0.103689
   9 C :   -0.021909
  10 C :   -0.043819
  11 C :   -0.037375
  12 C :    0.011671
  13 O :   -0.213195
  14 C :   -0.111776
  15 C :   -0.034712
  16 C :   -0.056439
  17 C :   -0.043385
  18 C :   -0.056346
  19 C :   -0.021499
  20 H :    0.071079
  21 H :    0.070072
  22 H :    0.078161
  23 H :    0.159215
  24 H :    0.106838
  25 H :    0.098309
  26 H :    0.085175
  27 H :    0.099371
  28 H :    0.097781
  29 H :    0.082838
  30 H :    0.081996
  31 H :    0.082432
  32 H :    0.095460

-------------------------------
LOEWDIN REDUCED ORBITAL CHARGES
-------------------------------
  0 H s       :     0.811279  s :     0.811279
      pz      :     0.025398  p :     0.071530
      px      :     0.014515
      py      :     0.031617

  1 C s       :     2.783588  s :     2.783588
      pz      :     1.046352  p :     3.180754
      px      :     1.073402
      py      :     1.061000
      dz2     :     0.028933  d :     0.151257
      dxz     :     0.027294
      dyz     :     0.034713
      dx2y2   :     0.025652
      dxy     :     0.034665

  2 C s       :     2.794815  s :     2.794815
      pz      :     1.084334  p :     3.186783
      px      :     1.022426
      py      :     1.080023
      dz2     :     0.019513  d :     0.097283
      dxz     :     0.013158
      dyz     :     0.019496
      dx2y2   :     0.020237
      dxy     :     0.024879

  3 C s       :     2.780200  s :     2.780200
      pz      :     0.838546  p :     2.814937
      px      :     0.957408
      py      :     1.018982
      dz2     :     0.040302  d :     0.411512
      dxz     :     0.062772
      dyz     :     0.056102
      dx2y2   :     0.130331
      dxy     :     0.122006

  4 O s       :     3.392191  s :     3.392191
      pz      :     1.673075  p :     4.635355
      px      :     1.462599
      py      :     1.499681
      dz2     :     0.002303  d :     0.018752
      dxz     :     0.002508
      dyz     :     0.002476
      dx2y2   :     0.008864
      dxy     :     0.002601

  5 O s       :     3.513814  s :     3.513814
      pz      :     1.452629  p :     4.678631
      px      :     1.726661
      py      :     1.499342
      dz2     :     0.002780  d :     0.022717
      dxz     :     0.001729
      dyz     :     0.006495
      dx2y2   :     0.005980
      dxy     :     0.005733

  6 C s       :     2.790145  s :     2.790145
      pz      :     1.062428  p :     3.155146
      px      :     0.975841
      py      :     1.116877
      dz2     :     0.042142  d :     0.161373
      dxz     :     0.019115
      dyz     :     0.051859
      dx2y2   :     0.024906
      dxy     :     0.023351

  7 C s       :     2.785234  s :     2.785234
      pz      :     1.060119  p :     3.109224
      px      :     0.967196
      py      :     1.081909
      dz2     :     0.029772  d :     0.129731
      dxz     :     0.015332
      dyz     :     0.047427
      dx2y2   :     0.018368
      dxy     :     0.018832

  8 C s       :     2.778535  s :     2.778535
      pz      :     1.110814  p :     3.164756
      px      :     0.985503
      py      :     1.068439
      dz2     :     0.045510  d :     0.160397
      dxz     :     0.022781
      dyz     :     0.049715
      dx2y2   :     0.027737
      dxy     :     0.014654

  9 C s       :     2.787523  s :     2.787523
      pz      :     1.054401  p :     3.099702
      px      :     0.946792
      py      :     1.098509
      dz2     :     0.032466  d :     0.134684
      dxz     :     0.010321
      dyz     :     0.046088
      dx2y2   :     0.023486
      dxy     :     0.022323

 10 C s       :     2.797551  s :     2.797551
      pz      :     1.071206  p :     3.114494
      px      :     0.957166
      py      :     1.086122
      dz2     :     0.031769  d :     0.131774
      dxz     :     0.014713
      dyz     :     0.049334
      dx2y2   :     0.018525
      dxy     :     0.017434

 11 C s       :     2.789523  s :     2.789523
      pz      :     1.098396  p :     3.115514
      px      :     0.954877
      py      :     1.062241
      dz2     :     0.041118  d :     0.132338
      dxz     :     0.022074
      dyz     :     0.041139
      dx2y2   :     0.018121
      dxy     :     0.009887

 12 C s       :     2.784557  s :     2.784557
      pz      :     1.034385  p :     2.890054
      px      :     0.783844
      py      :     1.071826
      dz2     :     0.088759  d :     0.313718
      dxz     :     0.050591
      dyz     :     0.115555
      dx2y2   :     0.030662
      dxy     :     0.028151

 13 O s       :     3.509872  s :     3.509872
      pz      :     1.504212  p :     4.680685
      px      :     1.390623
      py      :     1.785850
      dz2     :     0.009830  d :     0.022638
      dxz     :     0.005448
      dyz     :     0.005836
      dx2y2   :     0.000734
      dxy     :     0.000791

 14 C s       :     2.778383  s :     2.778383
      pz      :     1.048692  p :     3.172204
      px      :     1.033188
      py      :     1.090324
      dz2     :     0.028236  d :     0.161190
      dxz     :     0.022311
      dyz     :     0.046796
      dx2y2   :     0.032940
      dxy     :     0.030907

 15 C s       :     2.787544  s :     2.787544
      pz      :     1.032169  p :     3.113802
      px      :     1.006721
      py      :     1.074912
      dz2     :     0.031845  d :     0.133366
      dxz     :     0.023039
      dyz     :     0.030036
      dx2y2   :     0.024181
      dxy     :     0.024265

 16 C s       :     2.798283  s :     2.798283
      pz      :     1.027016  p :     3.125827
      px      :     0.998386
      py      :     1.100425
      dz2     :     0.020895  d :     0.132329
      dxz     :     0.017333
      dyz     :     0.035955
      dx2y2   :     0.030132
      dxy     :     0.028013

 17 C s       :     2.801734  s :     2.801734
      pz      :     1.030313  p :     3.108156
      px      :     0.995944
      py      :     1.081900
      dz2     :     0.022353  d :     0.133495
      dxz     :     0.018223
      dyz     :     0.037826
      dx2y2   :     0.027457
      dxy     :     0.027636

 18 C s       :     2.799297  s :     2.799297
      pz      :     1.055548  p :     3.124945
      px      :     1.007783
      py      :     1.061614
      dz2     :     0.030092  d :     0.132105
      dxz     :     0.022771
      dyz     :     0.031665
      dx2y2   :     0.024519
      dxy     :     0.023058

 19 C s       :     2.790070  s :     2.790070
      pz      :     1.029214  p :     3.099088
      px      :     0.987553
      py      :     1.082320
      dz2     :     0.022132  d :     0.132341
      dxz     :     0.016832
      dyz     :     0.035081
      dx2y2   :     0.029793
      dxy     :     0.028504

 20 H s       :     0.860580  s :     0.860580
      pz      :     0.037547  p :     0.068341
      px      :     0.014364
      py      :     0.016431

 21 H s       :     0.861392  s :     0.861392
      pz      :     0.015403  p :     0.068535
      px      :     0.024066
      py      :     0.029066

 22 H s       :     0.853871  s :     0.853871
      pz      :     0.024234  p :     0.067968
      px      :     0.013459
      py      :     0.030275

 23 H s       :     0.659851  s :     0.659851
      pz      :     0.053690  p :     0.180935
      px      :     0.033595
      py      :     0.093649

 24 H s       :     0.820815  s :     0.820815
      pz      :     0.028086  p :     0.072348
      px      :     0.018090
      py      :     0.026172

 25 H s       :     0.831172  s :     0.831172
      pz      :     0.039933  p :     0.070519
      px      :     0.014752
      py      :     0.015834

 26 H s       :     0.844943  s :     0.844943
      pz      :     0.028290  p :     0.069883
      px      :     0.016620
      py      :     0.024973

 27 H s       :     0.830397  s :     0.830397
      pz      :     0.012826  p :     0.070232
      px      :     0.013767
      py      :     0.043640

 28 H s       :     0.829409  s :     0.829409
      pz      :     0.013271  p :     0.072810
      px      :     0.018806
      py      :     0.040732

 29 H s       :     0.846915  s :     0.846915
      pz      :     0.030369  p :     0.070247
      px      :     0.026482
      py      :     0.013396

 30 H s       :     0.847648  s :     0.847648
      pz      :     0.025525  p :     0.070356
      px      :     0.015518
      py      :     0.029313

 31 H s       :     0.847418  s :     0.847418
      pz      :     0.013107  p :     0.070151
      px      :     0.017074
      py      :     0.039970

 32 H s       :     0.833040  s :     0.833040
      pz      :     0.032573  p :     0.071500
      px      :     0.025651
      py      :     0.013276



                      *****************************
                      * MAYER POPULATION ANALYSIS *
                      *****************************

  NA   - Mulliken gross atomic population
  ZA   - Total nuclear charge
  QA   - Mulliken gross atomic charge
  VA   - Mayer's total valence
  BVA  - Mayer's bonded valence
  FA   - Mayer's free valence

  ATOM       NA         ZA         QA         VA         BVA        FA
  0 H      0.7562     1.0000     0.2438     0.9177     0.9177    -0.0000
  1 C      5.9790     6.0000     0.0210     2.4207     2.4207    -0.0000
  2 C      6.8413     6.0000    -0.8413     3.8532     3.8532    -0.0000
  3 C      6.1240     6.0000    -0.1240     4.3591     4.3591    -0.0000
  4 O      8.1596     8.0000    -0.1596     2.0470     2.0470    -0.0000
  5 O      8.3131     8.0000    -0.3131     2.0329     2.0329    -0.0000
  6 C      4.4905     6.0000     1.5095     1.3641     1.3641     0.0000
  7 C      8.0014     6.0000    -2.0014     7.0015     7.0015    -0.0000
  8 C      4.1973     6.0000     1.8027     0.3100     0.3100     0.0000
  9 C      5.8050     6.0000     0.1950     2.6684     2.6684    -0.0000
 10 C      6.3972     6.0000    -0.3972     2.9855     2.9855     0.0000
 11 C      6.8827     6.0000    -0.8827     4.0357     4.0357    -0.0000
 12 C      7.1901     6.0000    -1.1901     4.1114     4.1114    -0.0000
 13 O      8.2346     8.0000    -0.2346     1.9153     1.9153     0.0000
 14 C      4.2935     6.0000     1.7065     1.8892     1.8892     0.0000
 15 C      7.1899     6.0000    -1.1899     5.0072     5.0072    -0.0000
[...]
      px      :     0.951912
      py      :     1.087847
      dz2     :     0.032066  d :     0.131468
      dxz     :     0.013670
      dyz     :     0.050297
      dx2y2   :     0.018924
      dxy     :     0.016511

 11 C s       :     2.789912  s :     2.789912
      pz      :     1.097787  p :     3.108560
      px      :     0.942349
      py      :     1.068425
      dz2     :     0.040746  d :     0.131046
      dxz     :     0.020744
      dyz     :     0.042797
      dx2y2   :     0.017601
      dxy     :     0.009157

 12 C s       :     2.789450  s :     2.789450
      pz      :     1.032901  p :     2.884095
      px      :     0.780603
      py      :     1.070591
      dz2     :     0.088053  d :     0.306162
      dxz     :     0.049172
      dyz     :     0.113181
      dx2y2   :     0.029414
      dxy     :     0.026341

 13 O s       :     3.520383  s :     3.520383
      pz      :     1.501358  p :     4.681755
      px      :     1.394093
      py      :     1.786305
      dz2     :     0.009555  d :     0.021844
      dxz     :     0.005169
      dyz     :     0.005681
      dx2y2   :     0.000678
      dxy     :     0.000762

 14 C s       :     2.784631  s :     2.784631
      pz      :     1.045459  p :     3.170128
      px      :     1.040437
      py      :     1.084233
      dz2     :     0.027410  d :     0.157389
      dxz     :     0.022830
      dyz     :     0.044209
      dx2y2   :     0.032499
      dxy     :     0.030441

 15 C s       :     2.791938  s :     2.791938
      pz      :     1.027614  p :     3.114252
      px      :     1.013989
      py      :     1.072649
      dz2     :     0.030548  d :     0.131590
      dxz     :     0.023369
      dyz     :     0.027994
      dx2y2   :     0.024257
      dxy     :     0.025422

 16 C s       :     2.801026  s :     2.801026
      pz      :     1.023684  p :     3.125877
      px      :     1.007809
      py      :     1.094384
      dz2     :     0.019459  d :     0.130569
      dxz     :     0.018264
      dyz     :     0.033675
      dx2y2   :     0.030493
      dxy     :     0.028678

 17 C s       :     2.805938  s :     2.805938
      pz      :     1.023618  p :     3.105679
      px      :     1.008076
      py      :     1.073985
      dz2     :     0.020684  d :     0.130797
      dxz     :     0.019083
      dyz     :     0.034697
      dx2y2   :     0.028262
      dxy     :     0.028070

 18 C s       :     2.801500  s :     2.801500
      pz      :     1.050625  p :     3.124854
      px      :     1.015598
      py      :     1.058632
      dz2     :     0.028864  d :     0.130749
      dxz     :     0.023314
      dyz     :     0.029521
      dx2y2   :     0.023852
      dxy     :     0.025198

 19 C s       :     2.792915  s :     2.792915
      pz      :     1.027883  p :     3.099360
      px      :     0.996870
      py      :     1.074607
      dz2     :     0.021421  d :     0.131205
      dxz     :     0.018337
      dyz     :     0.032842
      dx2y2   :     0.030395
      dxy     :     0.028210

 20 H s       :     0.861078  s :     0.861078
      pz      :     0.038283  p :     0.068313
      px      :     0.014733
      py      :     0.015297

 21 H s       :     0.858374  s :     0.858374
      pz      :     0.017183  p :     0.068197
      px      :     0.026442
      py      :     0.024571

 22 H s       :     0.853809  s :     0.853809
      pz      :     0.022423  p :     0.068732
      px      :     0.012922
      py      :     0.033386

 23 H s       :     0.664546  s :     0.664546
      pz      :     0.048672  p :     0.180815
      px      :     0.031807
      py      :     0.100336

 24 H s       :     0.820177  s :     0.820177
      pz      :     0.029582  p :     0.072516
      px      :     0.015559
      py      :     0.027374

 25 H s       :     0.832557  s :     0.832557
      pz      :     0.040530  p :     0.071649
      px      :     0.015160
      py      :     0.015959

 26 H s       :     0.844949  s :     0.844949
      pz      :     0.028538  p :     0.070241
      px      :     0.015095
      py      :     0.026608

 27 H s       :     0.829516  s :     0.829516
      pz      :     0.013281  p :     0.070827
      px      :     0.013457
      py      :     0.044089

 28 H s       :     0.829852  s :     0.829852
      pz      :     0.012890  p :     0.072251
      px      :     0.019553
      py      :     0.039809

 29 H s       :     0.846512  s :     0.846512
      pz      :     0.029028  p :     0.070339
      px      :     0.028212
      py      :     0.013099

 30 H s       :     0.847186  s :     0.847186
      pz      :     0.026144  p :     0.070253
      px      :     0.014815
      py      :     0.029293

 31 H s       :     0.847063  s :     0.847063
      pz      :     0.012844  p :     0.070301
      px      :     0.018937
      py      :     0.038520

 32 H s       :     0.833731  s :     0.833731
      pz      :     0.031156  p :     0.071531
      px      :     0.027581
      py      :     0.012794



                      *****************************
                      * MAYER POPULATION ANALYSIS *
                      *****************************

  NA   - Mulliken gross atomic population
  ZA   - Total nuclear charge
  QA   - Mulliken gross atomic charge
  VA   - Mayer's total valence
  BVA  - Mayer's bonded valence
  FA   - Mayer's free valence

  ATOM       NA         ZA         QA         VA         BVA        FA
  0 H      0.7796     1.0000     0.2204     0.9392     0.9392    -0.0000
  1 C      6.0836     6.0000    -0.0836     2.9644     2.9644     0.0000
  2 C      6.8079     6.0000    -0.8079     3.8178     3.8178     0.0000
  3 C      6.1138     6.0000    -0.1138     4.1945     4.1945    -0.0000
  4 O      8.1683     8.0000    -0.1683     2.1099     2.1099    -0.0000
  5 O      8.3019     8.0000    -0.3019     2.0511     2.0511     0.0000
  6 C      4.4276     6.0000     1.5724     0.3259     0.3259     0.0000
  7 C      8.7177     6.0000    -2.7177     6.3378     6.3378     0.0000
  8 C      4.2402     6.0000     1.7598     1.1371     1.1371     0.0000
  9 C      5.8267     6.0000     0.1733     2.5235     2.5235    -0.0000
 10 C      6.3857     6.0000    -0.3857     3.2640     3.2640     0.0000
 11 C      6.1504     6.0000    -0.1504     3.7364     3.7364    -0.0000
 12 C      7.2622     6.0000    -1.2622     3.8863     3.8863    -0.0000
 13 O      8.2502     8.0000    -0.2502     1.9155     1.9155     0.0000
 14 C      4.1931     6.0000     1.8069     1.4032     1.4032    -0.0000
 15 C      7.0757     6.0000    -1.0757     5.0261     5.0261    -0.0000
 16 C      6.3213     6.0000    -0.3213     3.6365     3.6365     0.0000
 17 C      6.1613     6.0000    -0.1613     3.8500     3.8500     0.0000
 18 C      6.1809     6.0000    -0.1809     3.5120     3.5120    -0.0000
 19 C      6.0207     6.0000    -0.0207     2.9263     2.9263     0.0000
 20 H      0.8148     1.0000     0.1852     0.9280     0.9280    -0.0000
 21 H      0.8203     1.0000     0.1797     0.9386     0.9386    -0.0000
 22 H      0.7892     1.0000     0.2108     0.9208     0.9208     0.0000
 23 H      0.6778     1.0000     0.3222     0.9533     0.9533     0.0000
 24 H      0.8068     1.0000     0.1932     0.9546     0.9546    -0.0000
 25 H      0.8322     1.0000     0.1678     0.9600     0.9600    -0.0000
 26 H      0.8290     1.0000     0.1710     0.9448     0.9448    -0.0000
 27 H      0.8211     1.0000     0.1789     0.9577     0.9577     0.0000
 28 H      0.8075     1.0000     0.1925     0.9444     0.9444     0.0000
 29 H      0.8331     1.0000     0.1669     0.9524     0.9524     0.0000
 30 H      0.8306     1.0000     0.1694     0.9491     0.9491     0.0000
 31 H      0.8316     1.0000     0.1684     0.9486     0.9486    -0.0000
 32 H      0.8373     1.0000     0.1627     0.9664     0.9664     0.0000

  Mayer bond orders larger than 0.100000
B(  0-H ,  1-C ) :   1.1276 B(  0-H ,  6-C ) :  -0.5072 B(  0-H ,  7-C ) :   0.3144 
B(  1-C ,  2-C ) :   0.9635 B(  1-C ,  3-C ) :   0.8514 B(  1-C ,  4-O ) :  -0.3155 
B(  1-C ,  6-C ) :  -0.1601 B(  1-C ,  7-C ) :   0.4212 B(  1-C , 22-H ) :   0.1034 
B(  2-C ,  3-C ) :  -0.1307 B(  2-C ,  6-C ) :  -0.7522 B(  2-C ,  7-C ) :   0.4395 
B(  2-C , 11-C ) :   0.2679 B(  2-C , 20-H ) :   0.9698 B(  2-C , 21-H ) :   1.0097 
B(  2-C , 22-H ) :   0.9573 B(  3-C ,  4-O ) :   1.4119 B(  3-C ,  5-O ) :   2.1174 
B(  3-C ,  6-C ) :  -0.3375 B(  3-C , 11-C ) :   0.3087 B(  4-O ,  6-C ) :   0.6883 
B(  4-O ,  7-C ) :  -0.2656 B(  4-O , 11-C ) :  -0.1935 B(  4-O , 23-H ) :   0.8529 
B(  5-O ,  7-C ) :   0.1412 B(  5-O , 11-C ) :  -0.2578 B(  6-C ,  8-C ) :   0.6704 
B(  6-C ,  9-C ) :  -0.2182 B(  6-C , 10-C ) :   0.4848 B(  6-C , 11-C ) :   1.1108 
B(  6-C , 12-C ) :  -0.2517 B(  6-C , 14-C ) :   0.7532 B(  6-C , 16-C ) :   0.4801 
B(  6-C , 17-C ) :  -0.1489 B(  6-C , 18-C ) :   0.2607 B(  6-C , 19-C ) :  -1.4081 
B(  6-C , 21-H ) :  -0.1151 B(  6-C , 22-H ) :  -0.1456 B(  6-C , 23-H ) :   0.1502 
B(  7-C ,  8-C ) :   0.1069 B(  7-C ,  9-C ) :   0.7169 B(  7-C , 10-C ) :  -0.3528 
B(  7-C , 11-C ) :   0.9392 B(  7-C , 12-C ) :   2.1177 B(  7-C , 14-C ) :  -0.7059 
B(  7-C , 15-C ) :   2.0900 B(  7-C , 17-C ) :   0.2377 B(  7-C , 18-C ) :  -0.4678 
B(  7-C , 19-C ) :  -0.2529 B(  7-C , 23-H ) :  -0.1045 B(  7-C , 24-H ) :   0.8255 
B(  7-C , 27-H ) :   0.1177 B(  8-C ,  9-C ) :   1.4179 B(  8-C , 12-C ) :  -0.5986 
B(  8-C , 14-C ) :   0.7052 B(  8-C , 15-C ) :  -0.7433 B(  8-C , 16-C ) :   0.3591 
B(  8-C , 17-C ) :  -0.2142 B(  8-C , 18-C ) :   0.2645 B(  8-C , 19-C ) :  -0.8109 
B(  9-C , 10-C ) :   1.0301 B(  9-C , 11-C ) :  -0.5544 B(  9-C , 12-C ) :  -0.6498 
B(  9-C , 14-C ) :  -1.0901 B(  9-C , 15-C ) :  -0.7564 B(  9-C , 16-C ) :  -0.8356 
B(  9-C , 17-C ) :   0.1818 B(  9-C , 18-C ) :  -0.1341 B(  9-C , 19-C ) :   2.2174 
B(  9-C , 25-H ) :   0.9920 B( 10-C , 11-C ) :   1.0814 B( 10-C , 14-C ) :   0.3664 
B( 10-C , 15-C ) :  -0.2010 B( 10-C , 16-C ) :   0.2209 B( 10-C , 17-C ) :  -0.1057 
B( 10-C , 19-C ) :  -0.4087 B( 10-C , 26-H ) :   1.0594 B( 11-C , 14-C ) :  -0.2205 
B( 11-C , 15-C ) :   0.1520 B( 11-C , 19-C ) :   0.1708 B( 11-C , 27-H ) :   0.9005 
B( 12-C , 13-O ) :   1.8337 B( 12-C , 14-C ) :  -0.3871 B( 12-C , 15-C ) :   1.5242 
B( 12-C , 16-C ) :   0.1829 B( 12-C , 18-C ) :  -0.1664 B( 12-C , 32-H ) :   0.1962 
B( 14-C , 15-C ) :   0.8177 B( 14-C , 16-C ) :  -0.1034 B( 14-C , 19-C ) :   1.3973 
B( 14-C , 32-H ) :  -0.1887 B( 15-C , 16-C ) :   1.2714 B( 15-C , 28-H ) :   1.0065 
B( 15-C , 29-H ) :  -0.1009 B( 16-C , 17-C ) :   1.3284 B( 16-C , 18-C ) :   0.1062 
B( 16-C , 29-H ) :   1.0239 B( 17-C , 18-C ) :   1.3994 B( 17-C , 19-C ) :   0.1839 
B( 17-C , 30-H ) :   0.9768 B( 18-C , 19-C ) :   1.1952 B( 18-C , 31-H ) :   1.0327 
B( 19-C , 31-H ) :  -0.1316 B( 19-C , 32-H ) :   1.0129 

-------
TIMINGS
-------

Total SCF time: 0 days 0 hours 0 min 50 sec 

Total time                  ....      50.644 sec
Sum of individual times     ....      50.546 sec  ( 99.8%)

SCF preparation             ....       0.329 sec  (  0.6%)
Fock matrix formation       ....      49.826 sec  ( 98.4%)
  Startup                   ....       0.015 sec  (  0.0% of F)
  Split-RI-J                ....       7.967 sec  ( 16.0% of F)
  XC integration            ....      29.518 sec  ( 59.2% of F)
    Basis function eval.    ....       3.274 sec  ( 11.1% of XC)
    Density eval.           ....      12.594 sec  ( 42.7% of XC)
    XC-Functional eval.     ....       0.486 sec  (  1.6% of XC)
    XC-Potential eval.      ....      12.746 sec  ( 43.2% of XC)
  CPCM terms                ....      12.267 sec  ( 24.6% of F)
Diagonalization             ....       0.000 sec  (  0.0%)
Density matrix formation    ....       0.031 sec  (  0.1%)
Total Energy calculation    ....       0.020 sec  (  0.0%)
Population analysis         ....       0.063 sec  (  0.1%)
Orbital Transformation      ....       0.037 sec  (  0.1%)
Orbital Orthonormalization  ....       0.000 sec  (  0.0%)
DIIS solution               ....       0.043 sec  (  0.1%)
SOSCF solution              ....       0.197 sec  (  0.4%)
Finished LeanSCF after  50.8 sec

Maximum memory used throughout the entire LEANSCF-calculation: 110.3 MB

-------------------------   --------------------
FINAL SINGLE POINT ENERGY      -844.212289315499
-------------------------   --------------------

                                *** OPTIMIZATION RUN DONE ***


------------------------------------------------------------------------------
                              ORCA PROPERTY CALCULATIONS
------------------------------------------------------------------------------

GBWName                                 ... Dexketoprofen\Dexketoprofen_TPSS_6-311+G\Dexketoprofen_TPSS_6-311+G.orcainp.gbw
Number of atoms                         ...     33
Number of basis functions               ...    502
Max core memory                         ...   1024 MB

Electric properties:
Dipole moment                           ... YES
Quadrupole moment                       ...  NO
Static polarizability (Dipole/Dipole)   ...  NO
Static polarizability (Dipole/Quad.)    ...  NO
Static polarizability (Quad./Quad.)     ...  NO
Static polarizability (Velocity)        ...  NO

Atomic electric properties:
Dipole moment                           ...  NO
Quadrupole moment                       ...  NO
Static polarizability                   ...  NO

Choice of electric origin               ... Center of mass
Position of electric origin             ...     5.493581    -4.410350    -3.082612

General magnetic properties:
Magnetizability                         ...  NO

EPR properties:
g-Tensor (aka g-matrix)                 ...  NO
Zero-Field splitting spin-orbit         ...  NO
Zero-field splitting spin-spin          ...  NO
Hyperfine couplings                     ...  NO (   0 nuclei)
Quadrupole couplings                    ...  NO (   0 nuclei)
Contact density                         ...  NO (   0 nuclei)

NMR properties:
Chemical shifts                         ...  NO (   0 nuclei)
Spin-rotation constants                 ...  NO (   0 nuclei)
Spin-spin couplings                     ...  NO (   0 nuclei,    0 pairs)

Choice of magnetic origin               ... GIAO
Position of magnetic origin             ...     0.000000     0.000000     0.000000

Properties with geometric perturbations:
SCF Hessian                             ...  NO
IR spectrum                             ...  NO
VCD spectrum                            ...  NO
X-ray spectroscopy properties:
SCF XES/XAS/RIXS spectra                ...  NO


-------------
DIPOLE MOMENT
-------------

Method             : SCF
Type of density    : Electron Density
Multiplicity       :   1
Irrep              :   0
Energy             :  -844.2122893154987651 Eh
Relativity type    : 
Basis              : AO
                                X                 Y                 Z
Electronic contribution:      3.986488859      -1.267087410      -3.338381545
Nuclear contribution   :     -3.982319906      -0.317018370       4.306121357
                        -----------------------------------------
Total Dipole Moment    :      0.004168953      -1.584105781       0.967739812
                        -----------------------------------------
Magnitude (a.u.)       :      1.856321321
Magnitude (Debye)      :      4.718393822



--------------------
Rotational spectrum 
--------------------
 
Rotational constants in cm-1:             0.020807             0.007072             0.005894 
Rotational constants in MHz :           623.775013           212.011014           176.683566 

Dipole components along the rotational axes: 
x,y,z [a.u.] :    -1.266690     1.293897     0.408969 
x,y,z [Debye]:    -3.219671     3.288824     1.039517 

 

Dipole moment calculation done in   0.0 sec 

Maximum memory used throughout the entire PROP-calculation: 44.6 MB

--------------------------------
SUGGESTED CITATIONS FOR THIS RUN
--------------------------------

Below you find a list of papers that are relevant to this ORCA run
We neither can nor want to force you to cite these papers, but we appreciate if you do
You receive ORCA, which is the product of decades of hard work by many enthusiastic individuals, for free
The only thing we kindly ask in return is that you cite our papers,
We deeply appreciate it, if you show your appreciation for ORCA by not just citing the generic ORCA reference.

Please note that relegating all ORCA citations to the supporting information does *not* help us.
SI sections are not indexed - citations you put there will not count into any citation statistics
But we need these citations in order to attract the funding resources that allow us to do what we are doing

Therefore, if you are a happy ORCA user, please consider citing a few of the papers listed below in the main body of your paper

In addition to the list printed below, the program has created the file Dexketoprofen\Dexketoprofen_TPSS_6-311+G\Dexketoprofen_TPSS_6-311+G.orcainp.bibtex that contains the list in bibtex format
You can import this file easily into all common literature databanks and citation aid programs


List of essential papers. We consider these as the minimum necessary citations

  1. Neese,F.
     Software update: the ORCA program system, version 5.0
     WIRES Comput. Molec. Sci., 2022 12(1)e1606
     doi.org/10.1002/wcms.1606

List of papers to cite with high priority. The work reported in these papers was absolutely
necessary for this run to complete.
Our perspective: the developers of density functionals and basis sets usually get cited in chemistry papers
Good! But without the algorithms to do something with them, the functionals or basis sets would not do anything.
Hence, in our opinion, the algorithm design and method developments papers are equally worthy of getting cited

  1. Neese,F.
     An improvement of the resolution of the identity approximation for the formation of the Coulomb matrix
     J. Comp. Chem., 2003 24(14)1740-1747
     doi.org/10.1002/jcc.10318
  2. Garcia-Rates,M.; Neese,F.
     Effect of the Solute Cavity on the Solvation Energy and its Derivatives within the Framework of the Gaussian Charge Scheme
     J. Comput. Chem., 2020 41 922-939
     doi.org/10.1002/jcc.26139
  3. Neese,F.
     The SHARK Integral Generation and Digestion System
     J. Comp. Chem., 2022  1-16
     doi.org/10.1002/jcc.26942

List of suggested additional citations. These are papers that are important in the 'surrounding' of 
of this run, or papers that preceded the highly important papers. If you like your results we are grateful for a citation.

  1. Neese,F.
     The ORCA program system
     WIRES Comput. Molec. Sci., 2012 2(1)73-78
     doi.org/10.1002/wcms.81
  2. Neese,F.
     Software update: the ORCA program system, version 4.0
     WIRES Comput. Molec. Sci., 2018 8(1)1-6
     doi.org/10.1002/wcms.1327
  3. Neese,F.; Wennmohs,F.; Becker,U.; Riplinger,C.
     The ORCA quantum chemistry program package
     J. Chem. Phys., 2020 152 Art. No. L224108
     doi.org/10.1063/5.0004608

List of optional additional citations

  1. Neese,F.
     Approximate second-order SCF convergence for spin unrestricted wavefunctions
     Chem. Phys. Lett., 2000 325(1-3)93-98
     doi.org/10.1016/s0009-2614(00)00662-x

Timings for individual modules:

Sum of individual times          ...     2262.624 sec (=  37.710 min)
Startup calculation              ...       28.127 sec (=   0.469 min)   1.2 %
SCF iterations                   ...     1605.732 sec (=  26.762 min)  71.0 %
Property calculations            ...        0.119 sec (=   0.002 min)   0.0 %
SCF Gradient evaluation          ...      628.438 sec (=  10.474 min)  27.8 %
Geometry relaxation              ...        0.208 sec (=   0.003 min)   0.0 %
                             ****ORCA TERMINATED NORMALLY****
TOTAL RUN TIME: 0 days 0 hours 37 minutes 44 seconds 639 msec
