
                                 *****************
                                 * O   R   C   A *
                                 *****************

                                            #,                                       
                                            ###                                      
                                            ####                                     
                                            #####                                    
                                            ######                                   
                                           ########,                                 
                                     ,,################,,,,,                         
                               ,,#################################,,                 
                          ,,##########################################,,             
                       ,#########################################, ''#####,          
                    ,#############################################,,   '####,        
                  ,##################################################,,,,####,       
                ,###########''''           ''''###############################       
              ,#####''   ,,,,##########,,,,          '''####'''          '####       
            ,##' ,,,,###########################,,,                        '##       
           ' ,,###''''                  '''############,,,                           
         ,,##''                                '''############,,,,        ,,,,,,###''
      ,#''                                            '''#######################'''  
     '                                                          ''''####''''         
             ,#######,   #######,   ,#######,      ##                                
            ,#'     '#,  ##    ##  ,#'     '#,    #''#        ,####,   ,####,        
            ##       ##  ##   ,#'  ##            #'  '#       #'       #'  '#        
            ##       ##  #######   ##           ,######,      #####,   #    #        
            '#,     ,#'  ##    ##  '#,     ,#' ,#      #,     #,   #   #,  ,#        
             '#######'   ##     ##  '#######'  #'      '#     '####' # '####'        



                #########################################################
                #                        -***-                          #
                #          Department of theory and spectroscopy        #
                #                                                       #
                #                      Frank Neese                      #
                #                                                       #
                #     Directorship, Architecture, Infrastructure        #
                #                    SHARK, DRIVERS                     #
                #        Core code/Algorithms in most modules           #
                #                                                       #
                #        Max Planck Institute fuer Kohlenforschung      #
                #                Kaiser Wilhelm Platz 1                 #
                #                 D-45470 Muelheim/Ruhr                 #
                #                      Germany                          #
                #                                                       #
                #                  All rights reserved                  #
                #                        -***-                          #
                #########################################################


                         Program Version 6.0.0  -   RELEASE   -


 With contributions from (in alphabetic order):
   Daniel Aravena         : Magnetic Suceptibility
   Michael Atanasov       : Ab Initio Ligand Field Theory (pilot matlab implementation)
   Alexander A. Auer      : GIAO ZORA, VPT2 properties, NMR spectrum
   Ute Becker             : All parallelization in ORCA, NUMFREQ, NUMCALC
   Giovanni Bistoni       : ED, misc. LED, open-shell LED, HFLD
   Martin Brehm           : Molecular dynamics
   Dmytro Bykov           : pre 5.0 version of the SCF Hessian
   Marcos Casanova-Páez   : Triplet and SCS-CIS(D). UHF-(DLPNO)-IP/EA/STEOM-CCSD. UHF-CVS-IP/STEOM-CCSD
   Vijay G. Chilkuri      : MRCI spin determinant printing, contributions to CSF-ICE
   Pauline Colinet        : FMM embedding
   Dipayan Datta          : RHF DLPNO-CCSD density
   Achintya Kumar Dutta   : EOM-CC, STEOM-CC
   Nicolas Foglia         : Exact transition moments, OPA infrastructure, MCD improvements
   Dmitry Ganyushin       : Spin-Orbit,Spin-Spin,Magnetic field MRCI
   Miquel Garcia          : C-PCM and meta-GGA Hessian, CCSD/C-PCM, Gaussian charge scheme
   Tiago L. C. Gouveia    : GS-ROHF, GS-ROCIS
   Yang Guo               : DLPNO-NEVPT2, F12-NEVPT2, CIM, IAO-localization
   Andreas Hansen         : Spin unrestricted coupled pair/coupled cluster methods
   Ingolf Harden          : AUTO-CI MPn and infrastructure 
   Benjamin Helmich-Paris : MC-RPA, TRAH-(SCF,CASSCF), AVAS, COSX integrals, SCF dyn. polar.
   Lee Huntington         : MR-EOM, pCC
   Robert Izsak           : Overlap fitted RIJCOSX, COSX-SCS-MP3, EOM
   Riya Kayal             : Wick's Theorem for AUTO-CI, AUTO-CI UHF-CCSDT
   Emily Kempfer          : AUTO-CI, RHF CISDT and CCSDT
   Christian Kollmar      : KDIIS, OOCD, Brueckner-CCSD(T), CCSD density, CASPT2, CASPT2-K, improved NEVPT2
   Axel Koslowski         : Symmetry handling
   Simone Kossmann        : Meta GGA functionals, TD-DFT gradient, OOMP2, (MP2 Hessian; deprecated post 5.0)
   Lucas Lang             : DCDCAS
   Marvin Lechner         : AUTO-CI (C++ implementation), FIC-MRCC
   Spencer Leger          : CASSCF response
   Dagmar Lenk            : GEPOL surface, SMD, ORCA-2-JSON
   Dimitrios Liakos       : Extrapolation schemes; Compound Job, initial MDCI parallelization
   Dimitrios Manganas     : Further ROCIS development; embedding schemes. LFT, Crystal Embedding
   Dimitrios Pantazis     : SARC Basis sets
   Anastasios Papadopoulos: AUTO-CI, single reference methods and gradients
   Taras Petrenko         : pre 6.0 DFT Hessian and TD-DFT gradient, (ASA, deprecated), ECA, 1-Electron XAS/XES, NRVS
   Peter Pinski           : DLPNO-MP2, DLPNO-MP2 Gradient
   Christoph Reimann      : Effective Core Potentials
   Marius Retegan         : Local ZFS, SOC
   Christoph Riplinger    : Optimizer, TS searches, QM/MM, DLPNO-CCSD(T), (RO)-DLPNO pert. Triples
   Michael Roemelt        : Original ROCIS implementation
   Masaaki Saitow         : Open-shell DLPNO-CCSD energy and density
   Barbara Sandhoefer     : DKH picture change effects
   Kantharuban Sivalingam : CASSCF convergence/infrastructure, NEVPT2 and variants, FIC-MRCI
   Bernardo de Souza      : ESD, SOC TD-DFT
   Georgi Stoychev        : AutoAux, RI-MP2 NMR, DLPNO-MP2 response, X2C
   Van Anh Tran           : RI-MP2 g-tensors
   Willem Van den Heuvel  : Paramagnetic NMR
   Zikuan Wang            : NOTCH, Electric field optimization 
   Frank Wennmohs         : Technical directorship and infrastructure
   Hang Xu                : AUTO-CI-Response properties 


 We gratefully acknowledge several colleagues who have allowed us to
 interface, adapt or use parts of their codes:
   Stefan Grimme, W. Hujo, H. Kruse, P. Pracht,  : VdW corrections, initial TS optimization,
                  C. Bannwarth, S. Ehlert,         DFT functionals, gCP, sTDA/sTD-DF
                  L. Wittmann, M. Mueller
   Ed Valeev, F. Pavosevic, A. Kumar             : LibInt (2-el integral package), F12 methods
   Garnet Chan, S. Sharma, J. Yang, R. Olivares  : DMRG
   Ulf Ekstrom                                   : XCFun DFT Library
   Mihaly Kallay                                 : mrcc  (arbitrary order and MRCC methods)
   Frank Weinhold                                : gennbo (NPA and NBO analysis)
   Simon Mueller                                 : openCOSMO-RS
   Christopher J. Cramer and Donald G. Truhlar   : smd solvation model
   Lars Goerigk                                  : TD-DFT with DH, B97 family of functionals
   V. Asgeirsson, H. Jonsson                     : NEB implementation
   FAccTs GmbH                                   : IRC, NEB, NEB-TS, DLPNO-Multilevel, CI-OPT
                                                   MM, QMMM, 2- and 3-layer-ONIOM, Crystal-QMMM,
                                                   LR-CPCM, SF, NACMEs, symmetry and pop. for TD-DFT,
                                                   nearIR, NL-DFT gradient (VV10), updates on ESD,
                                                   ML-optimized integration grids, MBIS, APM,
                                                   GOAT, DOCKER, SOLVATOR, interface openCOSMO-RS
   S Lehtola, MJT Oliveira, MAL Marques          : LibXC Library
   Liviu Ungur et al                             : ANISO software


 Your calculation uses the libint2 library for the computation of 2-el integrals
 For citations please refer to: http://libint.valeyev.net

 Your ORCA version has been built with support for libXC version: 6.2.2
 For citations please refer to: https://libxc.gitlab.io

 This ORCA versions uses:
   CBLAS   interface :  Fast vector & matrix operations
   LAPACKE interface :  Fast linear algebra routines
   Shared memory     :  Shared parallel matrices


Warning: RI is on but no J-basis has been assigned. Assigning Def2/J (nothing to worry about!)
================================================================================

----- Orbital basis set information -----
Your calculation utilizes the basis: def2-TZVP
   F. Weigend and R. Ahlrichs, Phys. Chem. Chem. Phys. 7, 3297 (2005).

----- AuxJ basis set information -----
Your calculation utilizes the auxiliary basis: def2/J
   F. Weigend, Phys. Chem. Chem. Phys. 8, 1057 (2006).

================================================================================
                                        WARNINGS
                       Please study these warnings very carefully!
================================================================================


WARNING: Geometry Optimization
  ===> : Switching off AutoStart
         For restart on a previous wavefunction, please use MOREAD

================================================================================
                                       INPUT FILE
================================================================================
NAME = Diclofenac\Diclofenac_PBE_def2-TZVP\Diclofenac_PBE_def2-TZVP.orcainp
|  1> # ORCA input file
|  2> # 
|  3> !PBE def2-TZVP Opt CPCM(WATER)
|  4> * xyz 0 1
|  5>    O        3.20532         0.77222        -3.48165
|  6>    C        3.01992        -0.42363        -2.87260
|  7>    O        2.60439        -1.40765        -3.47515
|  8>    C        3.32048        -0.40706        -1.39156
|  9>    C        4.77373        -0.12881        -1.08244
| 10>    C        5.66943        -1.21342        -1.10651
| 11>    C        7.03233        -1.02123        -0.89021
| 12>    C        7.51453         0.25274        -0.62393
| 13>    C        6.63498         1.33431        -0.58478
| 14>    C        5.26576         1.17391        -0.86041
| 15>    N        4.37299         2.29124        -0.86707
| 16>    C        4.78516         3.66554        -0.98266
| 17>    C        5.63181         4.12934        -2.01264
| 18>   Cl        6.08405         3.13842        -3.35906
| 19>    C        6.11423         5.44479        -2.01214
| 20>    C        5.70652         6.34622        -1.03224
| 21>    C        4.79176         5.94154        -0.06385
| 22>    C        4.33591         4.61788        -0.04136
| 23>   Cl        3.21047         4.17011         1.19560
| 24>    H        3.58943         1.44889        -2.88309
| 25>    H        3.04405        -1.38942        -0.98093
| 26>    H        2.64728         0.30494        -0.90399
| 27>    H        5.30989        -2.22054        -1.31624
| 28>    H        7.71565        -1.86518        -0.93248
| 29>    H        8.57673         0.41196        -0.45771
| 30>    H        7.04962         2.31347        -0.36106
| 31>    H        3.79458         2.21395        -0.02113
| 32>    H        6.80603         5.77305        -2.78574
| 33>    H        6.08452         7.36622        -1.03898
| 34>    H        4.44479         6.65940         0.67650
| 35> *
| 36> 
| 37>                          ****END OF INPUT****
================================================================================

                       *****************************
                       * Geometry Optimization Run *
                       *****************************

Geometry optimization settings:
Update method            Update   .... BFGS
Choice of coordinates    CoordSys .... (2022) Redundant Internals
Initial Hessian          InHess   .... Almloef's Model
Max. no of cycles        MaxIter  .... 90

Convergence Tolerances:
Energy Change            TolE     ....  5.0000e-06 Eh
Max. Gradient            TolMAXG  ....  3.0000e-04 Eh/bohr
RMS Gradient             TolRMSG  ....  1.0000e-04 Eh/bohr
Max. Displacement        TolMAXD  ....  4.0000e-03 bohr
RMS Displacement         TolRMSD  ....  2.0000e-03 bohr
Strict Convergence                .... False

------------------------------------------------------------------------------
                        ORCA OPTIMIZATION COORDINATE SETUP
------------------------------------------------------------------------------

The optimization will be done in redundant internal coordinates (2022)
Making redundant internal coordinates   ...  (2022 redundants) done
Evaluating the initial hessian          ...  (Almloef) done
Evaluating the coordinates              ...  done
Calculating the B-matrix                .... done
Calculating the G-matrix                .... done
Diagonalizing the G-matrix              .... done
Small eigenvalue found = 5.495e-03
Small eigenvalue found = 1.592e-02
Small eigenvalue found = 2.020e-02
The first mode is                       ....   66
The number of degrees of freedom        ....   84

    -----------------------------------------------------------------
                    Redundant Internal Coordinates


    -----------------------------------------------------------------
         Definition                    Initial Value    Approx d2E/dq
    -----------------------------------------------------------------
      1. B(C   1,O   0)                  1.3548         0.636942   
      2. B(O   2,C   1)                  1.2264         1.020724   
      3. B(C   3,C   1)                  1.5113         0.400110   
      4. B(C   4,C   3)                  1.5116         0.399709   
      5. B(C   5,C   4)                  1.4069         0.587286   
      6. B(C   6,C   5)                  1.3933         0.617321   
      7. B(C   7,C   6)                  1.3880         0.629506   
      8. B(C   8,C   7)                  1.3946         0.614306   
      9. B(C   9,C   8)                  1.4059         0.589417   
     10. B(C   9,C   4)                  1.4101         0.580257   
     11. B(N  10,C   9)                  1.4302         0.482746   
     12. B(C  11,N  10)                  1.4394         0.466681   
     13. B(C  12,C  11)                  1.4117         0.577006   
     14. B(Cl 13,C  12)                  1.7318         0.399338   
     15. B(C  14,C  12)                  1.4011         0.599787   
     16. B(C  15,C  14)                  1.3925         0.619124   
     17. B(C  16,C  15)                  1.3922         0.619677   
     18. B(C  17,C  16)                  1.4001         0.601959   
     19. B(C  17,C  11)                  1.4124         0.575479   
     20. B(Cl 18,C  17)                  1.7312         0.400232   
     21. B(H  19,O   0)                  0.9817         0.480150   
     22. B(H  19,N  10)                  2.3212         0.003502   
     23. B(H  20,C   3)                  1.1000         0.347076   
     24. B(H  21,C   3)                  1.0945         0.354234   
     25. B(H  22,C   5)                  1.0897         0.360436   
     26. B(H  23,C   6)                  1.0867         0.364463   
     27. B(H  24,C   7)                  1.0869         0.364288   
     28. B(H  25,C   8)                  1.0866         0.364606   
     29. B(H  26,N  10)                  1.0277         0.405482   
     30. B(H  26,Cl 18)                  2.3766         0.007157   
     31. B(H  27,C  14)                  1.0885         0.362110   
     32. B(H  28,C  15)                  1.0878         0.363009   
     33. B(H  29,C  16)                  1.0880         0.362703   
     34. A(C   1,O   0,H  19)          112.8226         0.366784   
     35. A(O   0,C   1,O   2)          122.2589         0.471280   
     36. A(O   0,C   1,C   3)          113.8073         0.400825   
     37. A(O   2,C   1,C   3)          123.8939         0.435950   
     38. A(C   4,C   3,H  20)          109.2471         0.325964   
     39. A(C   4,C   3,H  21)          112.3646         0.327061   
     40. A(C   1,C   3,H  20)          107.8210         0.326018   
     41. A(C   1,C   3,H  21)          108.7456         0.327115   
     42. A(H  20,C   3,H  21)          105.0755         0.288421   
     43. A(C   1,C   3,C   4)          113.1797         0.371943   
     44. A(C   5,C   4,C   9)          119.5227         0.424785   
     45. A(C   3,C   4,C   9)          122.5281         0.396779   
     46. A(C   3,C   4,C   5)          117.8192         0.397619   
     47. A(C   4,C   5,C   6)          120.9164         0.429524   
     48. A(C   6,C   5,H  22)          118.6918         0.352706   
     49. A(C   4,C   5,H  22)          120.3798         0.349746   
     50. A(C   5,C   6,C   7)          119.7515         0.434917   
     51. A(C   5,C   6,H  23)          120.1269         0.353370   
     52. A(C   7,C   6,H  23)          120.1213         0.354542   
     53. A(C   8,C   7,H  24)          119.8986         0.353049   
     54. A(C   6,C   7,H  24)          120.2214         0.354513   
     55. A(C   6,C   7,C   8)          119.8759         0.434534   
     56. A(C   7,C   8,C   9)          121.3491         0.429426   
     57. A(C   9,C   8,H  25)          120.9853         0.350640   
     58. A(C   7,C   8,H  25)          117.6432         0.353101   
     59. A(C   8,C   9,N  10)          121.3141         0.408701   
     60. A(C   4,C   9,N  10)          120.2110         0.407570   
     61. A(C   4,C   9,C   8)          118.4311         0.425061   
     62. A(C   9,N  10,C  11)          124.5774         0.389750   
     63. A(C   9,N  10,H  26)          106.7825         0.340099   
     64. A(C  11,N  10,H  26)          107.4016         0.338183   
     65. A(C  12,C  11,C  17)          117.0973         0.422821   
     66. A(N  10,C  11,C  17)          119.9453         0.404548   
     67. A(N  10,C  11,C  12)          122.9571         0.404737   
     68. A(Cl 13,C  12,C  14)          116.5871         0.416913   
     69. A(C  11,C  12,C  14)          120.9775         0.425961   
     70. A(C  11,C  12,Cl 13)          122.4030         0.414052   
     71. A(C  15,C  14,H  27)          119.4061         0.353157   
     72. A(C  12,C  14,H  27)          120.1134         0.351267   
     73. A(C  12,C  14,C  15)          120.4783         0.431377   
     74. A(C  16,C  15,H  28)          120.3428         0.353359   
     75. A(C  14,C  15,H  28)          120.0595         0.353305   
     76. A(C  14,C  15,C  16)          119.5831         0.433915   
     77. A(C  15,C  16,H  29)          119.4092         0.353308   
     78. A(C  15,C  16,C  17)          119.9922         0.431727   
     79. A(C  17,C  16,H  29)          120.5961         0.351579   
     80. A(C  16,C  17,Cl 18)          117.8813         0.417348   
     81. A(C  11,C  17,Cl 18)          120.5682         0.414021   
     82. A(C  11,C  17,C  16)          121.5462         0.426035   
     83. D(C   3,C   1,O   0,H  19)      5.4575         0.029886   
     84. D(O   2,C   1,O   0,H  19)   -176.7577         0.029886   
     85. D(C   4,C   3,C   1,O   0)    -64.5811         0.011880   
     86. D(H  21,C   3,C   1,O   0)     61.0391         0.011880   
     87. D(H  20,C   3,C   1,O   2)     -3.2758         0.011880   
     88. D(H  20,C   3,C   1,O   0)    174.4674         0.011880   
     89. D(C   4,C   3,C   1,O   2)    117.6757         0.011880   
     90. D(C   5,C   4,C   3,H  21)    152.1542         0.011858   
     91. D(C   9,C   4,C   3,H  20)   -148.2199         0.011858   
     92. D(C   9,C   4,C   3,C   1)     91.6388         0.011858   
     93. D(C   5,C   4,C   3,H  20)     35.9509         0.011858   
     94. D(C   5,C   4,C   3,C   1)    -84.1904         0.011858   
     95. D(H  22,C   5,C   4,C   3)     -1.5999         0.023725   
     96. D(C   6,C   5,C   4,C   3)    177.1212         0.023725   
     97. D(C   6,C   5,C   4,C   9)      1.1621         0.023725   
     98. D(H  22,C   5,C   4,C   9)   -177.5589         0.023725   
     99. D(H  23,C   6,C   5,H  22)      0.0370         0.026356   
    100. D(H  23,C   6,C   5,C   4)   -178.7053         0.026356   
    101. D(C   7,C   6,C   5,H  22)    179.8719         0.026356   
    102. D(C   7,C   6,C   5,C   4)      1.1297         0.026356   
    103. D(H  24,C   7,C   6,H  23)      0.0644         0.027473   
    104. D(H  24,C   7,C   6,C   5)   -179.7706         0.027473   
    105. D(C   8,C   7,C   6,H  23)    179.3269         0.027473   
    106. D(C   8,C   7,C   6,C   5)     -0.5081         0.027473   
    107. D(H  25,C   8,C   7,H  24)     -1.4733         0.026084   
    108. D(H  25,C   8,C   7,C   6)    179.2618         0.026084   
    109. D(C   9,C   8,C   7,H  24)    176.8201         0.026084   
    110. D(C   9,C   8,C   7,C   6)     -2.4448         0.026084   
    111. D(N  10,C   9,C   4,C   3)      2.6341         0.023133   
    112. D(C   8,C   9,C   4,C   5)     -3.9796         0.023133   
    113. D(C   8,C   9,C   4,C   3)   -179.7404         0.023133   
    114. D(N  10,C   9,C   8,H  25)      0.5064         0.023906   
    115. D(N  10,C   9,C   8,C   7)   -177.7301         0.023906   
    116. D(C   4,C   9,C   8,H  25)   -177.0918         0.023906   
    117. D(C   4,C   9,C   8,C   7)      4.6717         0.023906   
    118. D(N  10,C   9,C   4,C   5)    178.3949         0.023133   
    119. D(H  26,N  10,C   9,C   8)   -107.4504         0.019940   
    120. D(H  26,N  10,C   9,C   4)     70.1055         0.019940   
    121. D(C  11,N  10,C   9,C   8)     18.5125         0.019940   
    122. D(C  11,N  10,C   9,C   4)   -163.9316         0.019940   
    123. D(C  17,C  11,N  10,H  26)     -2.2690         0.018602   
    124. D(C  17,C  11,N  10,C   9)   -127.9682         0.018602   
    125. D(C  12,C  11,N  10,H  26)    177.9402         0.018602   
    126. D(C  12,C  11,N  10,C   9)     52.2409         0.018602   
    127. D(C  14,C  12,C  11,C  17)      6.5887         0.022863   
    128. D(C  14,C  12,C  11,N  10)   -173.6148         0.022863   
    129. D(Cl 13,C  12,C  11,C  17)   -171.2697         0.022863   
    130. D(Cl 13,C  12,C  11,N  10)      8.5267         0.022863   
    131. D(H  27,C  14,C  12,Cl 13)     -5.0999         0.024799   
    132. D(H  27,C  14,C  12,C  11)    176.9220         0.024799   
    133. D(C  15,C  14,C  12,Cl 13)    174.3526         0.024799   
    134. D(C  15,C  14,C  12,C  11)     -3.6256         0.024799   
    135. D(H  28,C  15,C  14,H  27)     -0.4765         0.026520   
    136. D(H  28,C  15,C  14,C  12)   -179.9328         0.026520   
    137. D(C  16,C  15,C  14,H  27)    178.1377         0.026520   
    138. D(C  16,C  15,C  14,C  12)     -1.3186         0.026520   
    139. D(H  29,C  16,C  15,H  28)      1.0447         0.026570   
    140. D(H  29,C  16,C  15,C  14)   -177.5655         0.026570   
    141. D(C  17,C  16,C  15,H  28)   -178.3772         0.026570   
    142. D(C  17,C  16,C  15,C  14)      3.0125         0.026570   
    143. D(Cl 18,C  17,C  11,N  10)     -3.9322         0.022737   
    144. D(C  16,C  17,C  11,C  12)     -4.9004         0.022737   
    145. D(C  16,C  17,C  11,N  10)    175.2967         0.022737   
    146. D(Cl 18,C  17,C  16,H  29)      0.0162         0.024989   
    147. D(Cl 18,C  17,C  16,C  15)    179.4312         0.024989   
    148. D(C  11,C  17,C  16,H  29)   -179.2326         0.024989   
    149. D(C  11,C  17,C  16,C  15)      0.1823         0.024989   
    150. D(Cl 18,C  17,C  11,C  12)    175.8707         0.022737   
    -----------------------------------------------------------------

Number of atoms                         .... 30
Number of degrees of freedom            .... 150


         *************************************************************
         *                GEOMETRY OPTIMIZATION CYCLE   1            *
         *************************************************************
---------------------------------
CARTESIAN COORDINATES (ANGSTROEM)
---------------------------------
  O      3.205320    0.772220   -3.481650
  C      3.019920   -0.423630   -2.872600
  O      2.604390   -1.407650   -3.475150
  C      3.320480   -0.407060   -1.391560
  C      4.773730   -0.128810   -1.082440
  C      5.669430   -1.213420   -1.106510
  C      7.032330   -1.021230   -0.890210
  C      7.514530    0.252740   -0.623930
  C      6.634980    1.334310   -0.584780
  C      5.265760    1.173910   -0.860410
  N      4.372990    2.291240   -0.867070
  C      4.785160    3.665540   -0.982660
  C      5.631810    4.129340   -2.012640
  Cl     6.084050    3.138420   -3.359060
  C      6.114230    5.444790   -2.012140
  C      5.706520    6.346220   -1.032240
  C      4.791760    5.941540   -0.063850
  C      4.335910    4.617880   -0.041360
  Cl     3.210470    4.170110    1.195600
  H      3.589430    1.448890   -2.883090
  H      3.044050   -1.389420   -0.980930
  H      2.647280    0.304940   -0.903990
  H      5.309890   -2.220540   -1.316240
  H      7.715650   -1.865180   -0.932480
  H      8.576730    0.411960   -0.457710
  H      7.049620    2.313470   -0.361060
  H      3.794580    2.213950   -0.021130
  H      6.806030    5.773050   -2.785740
  H      6.084520    7.366220   -1.038980
  H      4.444790    6.659400    0.676500

----------------------------
CARTESIAN COORDINATES (A.U.)
----------------------------
  NO LB      ZA    FRAG     MASS         X           Y           Z
   0 O     8.0000    0    15.999    6.057177    1.459284   -6.579365
   1 C     6.0000    0    12.011    5.706822   -0.800545   -5.428427
   2 O     8.0000    0    15.999    4.921584   -2.660073   -6.567082
   3 C     6.0000    0    12.011    6.274798   -0.769232   -2.629667
   4 C     6.0000    0    12.011    9.021042   -0.243416   -2.045515
   5 C     6.0000    0    12.011   10.713670   -2.293031   -2.091001
   6 C     6.0000    0    12.011   13.289178   -1.929845   -1.682253
   7 C     6.0000    0    12.011   14.200404    0.477609   -1.179057
   8 C     6.0000    0    12.011   12.538295    2.521480   -1.105074
   9 C     6.0000    0    12.011    9.950844    2.218368   -1.625939
  10 N     7.0000    0    14.007    8.263753    4.329816   -1.638525
  11 C     6.0000    0    12.011    9.042642    6.926867   -1.856958
  12 C     6.0000    0    12.011   10.642579    7.803322   -3.803338
  13 Cl   17.0000    0    35.453   11.497188    5.930754   -6.347703
  14 C     6.0000    0    12.011   11.554220   10.289162   -3.802394
  15 C     6.0000    0    12.011   10.783760   11.992618   -1.950651
  16 C     6.0000    0    12.011    9.055114   11.227883   -0.120659
  17 C     6.0000    0    12.011    8.193682    8.726529   -0.078159
  18 Cl   17.0000    0    35.453    6.066909    7.880366    2.259357
  19 H     1.0000    0     1.008    6.783040    2.738005   -5.448251
  20 H     1.0000    0     1.008    5.752421   -2.625623   -1.853689
  21 H     1.0000    0     1.008    5.002634    0.576253   -1.708294
  22 H     1.0000    0     1.008   10.034238   -4.196212   -2.487333
  23 H     1.0000    0     1.008   14.580465   -3.524679   -1.762132
  24 H     1.0000    0     1.008   16.207671    0.778492   -0.864947
  25 H     1.0000    0     1.008   13.321851    4.371825   -0.682305
  26 H     1.0000    0     1.008    7.170717    4.183759   -0.039930
  27 H     1.0000    0     1.008   12.861533   10.909483   -5.264286
  28 H     1.0000    0     1.008   11.498076   13.920138   -1.963388
  29 H     1.0000    0     1.008    8.399436   12.584442    1.278400

--------------------------------
INTERNAL COORDINATES (ANGSTROEM)
--------------------------------
 O      0   0   0     0.000000000000     0.00000000     0.00000000
 C      1   0   0     1.354759124346     0.00000000     0.00000000
 O      2   1   0     1.226387803185   122.25886070     0.00000000
 C      2   1   3     1.511320733696   113.80731677   182.21517733
 C      4   2   1     1.511593132890   113.17973868   295.41889602
 C      5   4   2     1.406853477445   117.81917752   275.80959513
 C      6   5   4     1.393276388984   120.91640178   177.12116677
 C      7   6   5     1.387955849190   119.75151965     1.12972456
 C      8   7   6     1.394609117244   119.87585761   359.49189910
 C      9   8   7     1.405867513424   121.34909130   357.55522682
 N     10   9   8     1.430212906318   121.31409752   182.26987130
 C     11  10   9     1.439425457257   124.57742099    18.51254303
 C     12  11  10     1.411660533875   122.95710227    52.24088466
 Cl    13  12  11     1.731845917049   122.40300131     8.52670708
 C     13  12  11     1.401120269249   120.97751612   186.38520438
 C     15  13  12     1.392482495043   120.47830003   356.37438051
 C     16  15  13     1.392239545517   119.58306033   358.68141614
 C     17  16  15     1.400135999894   119.99215386     3.01253646
 Cl    18  17  16     1.731237478828   117.88126431   179.43119454
 H      1   2   3     0.981680627597   112.82262353   183.24233414
 H      4   2   1     1.100028050279   107.82103038   174.46741659
 H      4   2   1     1.094470988606   108.74559446    61.03913464
 H      6   5   4     1.089746015776   120.37979839   358.40012770
 H      7   6   5     1.086721941345   120.12693205   181.29474095
 H      8   7   6     1.086852766846   120.22144722   180.22944026
 H      9   8   7     1.086614592945   117.64318796   179.26184483
 H     11  10   9     1.027689814973   106.78254679   252.54963810
 H     15  13  12     1.088484647388   120.11337558   176.92196454
 H     16  15  13     1.087809462912   120.05950006   180.06718666
 H     17  16  15     1.088039191849   119.40919265   182.43445238

---------------------------
INTERNAL COORDINATES (A.U.)
---------------------------
 O      0   0   0     0.000000000000     0.00000000     0.00000000
 C      1   0   0     2.560123722446     0.00000000     0.00000000
 O      2   1   0     2.317537082000   122.25886070     0.00000000
 C      2   1   3     2.855982287203   113.80731677   182.21517733
 C      4   2   1     2.856497047078   113.17973868   295.41889602
 C      5   4   2     2.658567782926   117.81917752   275.80959513
 C      6   5   4     2.632910804038   120.91640178   177.12116677
 C      7   6   5     2.622856440943   119.75151965     1.12972456
 C      8   7   6     2.635429295461   119.87585761   359.49189910
 C      9   8   7     2.656704580948   121.34909130   357.55522682
 N     10   9   8     2.702710706142   121.31409752   182.26987130
 C     11  10   9     2.720119904410   124.57742099    18.51254303
 C     12  11  10     2.667651803089   122.95710227    52.24088466
 Cl    13  12  11     3.272714489373   122.40300131     8.52670708
 C     13  12  11     2.647733589566   120.97751612   186.38520438
 C     15  13  12     2.631410561910   120.47830003   356.37438051
 C     16  15  13     2.630951453841   119.58306033   358.68141614
 C     17  16  15     2.645873590044   119.99215386     3.01253646
 Cl    18  17  16     3.271564707766   117.88126431   179.43119454
 H      1   2   3     1.855107537135   112.82262353   183.24233414
 H      4   2   1     2.078751754658   107.82103038   174.46741659
 H      4   2   1     2.068250429987   108.74559446    61.03913464
 H      6   5   4     2.059321525349   120.37979839   358.40012770
 H      7   6   5     2.053606852865   120.12693205   181.29474095
 H      8   7   6     2.053854077233   120.22144722   180.22944026
 H      9   8   7     2.053403993787   117.64318796   179.26184483
 H     11  10   9     1.942052300920   106.78254679   252.54963810
 H     15  13  12     2.056937884542   120.11337558   176.92196454
 H     16  15  13     2.055661970791   120.05950006   180.06718666
 H     17  16  15     2.056096095568   119.40919265   182.43445238

---------------------
BASIS SET INFORMATION
---------------------
There are 5 groups of distinct atoms

 Group   1 Type O   : 11s6p2d1f contracted to 5s3p2d1f pattern {62111/411/11/1}
 Group   2 Type C   : 11s6p2d1f contracted to 5s3p2d1f pattern {62111/411/11/1}
 Group   3 Type N   : 11s6p2d1f contracted to 5s3p2d1f pattern {62111/411/11/1}
 Group   4 Type Cl  : 14s9p3d1f contracted to 5s5p2d1f pattern {73211/51111/21/1}
 Group   5 Type H   : 5s1p contracted to 3s1p pattern {311/1}

Atom   0O    basis set group =>   1
Atom   1C    basis set group =>   2
Atom   2O    basis set group =>   1
Atom   3C    basis set group =>   2
Atom   4C    basis set group =>   2
Atom   5C    basis set group =>   2
Atom   6C    basis set group =>   2
Atom   7C    basis set group =>   2
Atom   8C    basis set group =>   2
Atom   9C    basis set group =>   2
Atom  10N    basis set group =>   3
Atom  11C    basis set group =>   2
Atom  12C    basis set group =>   2
Atom  13Cl   basis set group =>   4
Atom  14C    basis set group =>   2
Atom  15C    basis set group =>   2
Atom  16C    basis set group =>   2
Atom  17C    basis set group =>   2
Atom  18Cl   basis set group =>   4
Atom  19H    basis set group =>   5
Atom  20H    basis set group =>   5
Atom  21H    basis set group =>   5
Atom  22H    basis set group =>   5
Atom  23H    basis set group =>   5
Atom  24H    basis set group =>   5
Atom  25H    basis set group =>   5
Atom  26H    basis set group =>   5
Atom  27H    basis set group =>   5
Atom  28H    basis set group =>   5
Atom  29H    basis set group =>   5
---------------------------------
AUXILIARY/J BASIS SET INFORMATION
---------------------------------
There are 5 groups of distinct atoms

 Group   1 Type O   : 12s5p4d2f1g contracted to 6s4p3d1f1g pattern {711111/2111/211/2/1}
 Group   2 Type C   : 12s5p4d2f1g contracted to 6s4p3d1f1g pattern {711111/2111/211/2/1}
 Group   3 Type N   : 12s5p4d2f1g contracted to 6s4p3d1f1g pattern {711111/2111/211/2/1}
 Group   4 Type Cl  : 14s5p5d2f1g contracted to 8s4p3d1f1g pattern {71111111/2111/311/2/1}
 Group   5 Type H   : 5s2p1d contracted to 3s1p1d pattern {311/2/1}

Atom   0O    basis set group =>   1
Atom   1C    basis set group =>   2
Atom   2O    basis set group =>   1
Atom   3C    basis set group =>   2
Atom   4C    basis set group =>   2
Atom   5C    basis set group =>   2
Atom   6C    basis set group =>   2
Atom   7C    basis set group =>   2
Atom   8C    basis set group =>   2
Atom   9C    basis set group =>   2
Atom  10N    basis set group =>   3
Atom  11C    basis set group =>   2
Atom  12C    basis set group =>   2
Atom  13Cl   basis set group =>   4
Atom  14C    basis set group =>   2
Atom  15C    basis set group =>   2
Atom  16C    basis set group =>   2
Atom  17C    basis set group =>   2
Atom  18Cl   basis set group =>   4
Atom  19H    basis set group =>   5
Atom  20H    basis set group =>   5
Atom  21H    basis set group =>   5
Atom  22H    basis set group =>   5
Atom  23H    basis set group =>   5
Atom  24H    basis set group =>   5
Atom  25H    basis set group =>   5
Atom  26H    basis set group =>   5
Atom  27H    basis set group =>   5
Atom  28H    basis set group =>   5
Atom  29H    basis set group =>   5
------------------------------------------------------------------------------
                             ORCA STARTUP CALCULATIONS
                           -- RI-GTO INTEGRALS CHOSEN --
------------------------------------------------------------------------------
------------------------------------------------------------------------------
                   ___                                                        
                  /   \      - P O W E R E D   B Y -                         
                 /     \                                                     
                 |  |  |   _    _      __       _____    __    __             
                 |  |  |  | |  | |    /  \     |  _  \  |  |  /  |          
                  \  \/   | |  | |   /    \    | | | |  |  | /  /          
                 / \  \   | |__| |  /  /\  \   | |_| |  |  |/  /          
                |  |  |   |  __  | /  /__\  \  |    /   |      \           
                |  |  |   | |  | | |   __   |  |    \   |  |\   \          
                \     /   | |  | | |  |  |  |  | |\  \  |  | \   \       
                 \___/    |_|  |_| |__|  |__|  |_| \__\ |__|  \__/        
                                                                              
                      - O R C A' S   B I G   F R I E N D -                    
                                      &                                       
                       - I N T E G R A L  F E E D E R -                       
                                                                              
 v1 FN, 2020, v2 2021, v3 2022-2024                                           
------------------------------------------------------------------------------


----------------------
SHARK INTEGRAL PACKAGE
----------------------

Number of atoms                             ...     30
Number of basis functions                   ...    667
Number of shells                            ...    257
Maximum angular momentum                    ...      3
Integral batch strategy                     ... SHARK/LIBINT Hybrid
RI-J (if used) integral strategy            ... SPLIT-RIJ (Revised 2003 algorithm where possible)
Printlevel                                  ...      1
Contraction scheme used                     ... SEGMENTED contraction
Prescreening option                         ... SCHWARTZ
   Thresh                                   ... 2.500e-11
   Tcut                                     ... 2.500e-12
   Tpresel                                  ... 2.500e-12 
Coulomb Range Separation                    ... NOT USED
Exchange Range Separation                   ... NOT USED
Multipole approximations                    ... NOT USED
Finite Nucleus Model                        ... NOT USED
CABS basis                                  ... NOT available
Auxiliary Coulomb fitting basis             ... AVAILABLE
   # of basis functions in Aux-J            ...   1056
   # of shells in Aux-J                     ...    344
   Maximum angular momentum in Aux-J        ...      4
Auxiliary J/K fitting basis                 ... NOT available
Auxiliary Correlation fitting basis         ... NOT available
Auxiliary 'external' fitting basis          ... NOT available

Checking pre-screening integrals            ... done (  0.0 sec) Dimension = 257
Check shell pair data                       ... done (  0.0 sec)
Shell pair information
Shell pair cut-off parameter TPreSel        ...   2.5e-12
Total number of shell pairs                 ...     33153
Shell pairs after pre-screening             ...     24861
Total number of primitive shell pairs       ...    106509
Primitive shell pairs kept                  ...     53030
          la=0 lb=0:   5898 shell pairs
          la=1 lb=0:   7109 shell pairs
          la=1 lb=1:   2162 shell pairs
          la=2 lb=0:   3570 shell pairs
          la=2 lb=1:   2175 shell pairs
          la=2 lb=2:    571 shell pairs
          la=3 lb=0:   1678 shell pairs
          la=3 lb=1:   1038 shell pairs
          la=3 lb=2:    525 shell pairs
          la=3 lb=3:    135 shell pairs

Calculating one electron integrals          ... done (  0.1 sec)
Calculating RI/J V-Matrix + Cholesky decomp.... done (  0.0 sec)
Calculating Nuclear repulsion               ... done (  0.0 sec) ENN=   1645.217004874859 Eh

Diagonalization of the overlap matrix:
Smallest eigenvalue                        ... 6.062e-06
Time for diagonalization                   ...    0.032 sec
Threshold for overlap eigenvalues          ... 1.000e-07
Number of eigenvalues below threshold      ... 0
Time for construction of square roots      ...    0.022 sec
Total time needed                          ...    0.056 sec

-------------------
DFT GRID GENERATION
-------------------

General Integration Accuracy     IntAcc      ... 4.388
Radial Grid Type                 RadialGrid  ... OptM3 with GC (2021)
Angular Grid (max. ang.)         AngularGrid ... 4 (Lebedev-302)
Angular grid pruning method      GridPruning ... 4 (adaptive)
Weight generation scheme         WeightScheme... mBecke (2022)
Basis function cutoff            BFCut       ... 1.0000e-11
Integration weight cutoff        WCut        ... 1.0000e-14
Partially contracted basis set               ... off
Rotationally invariant grid construction     ... off
Angular grids for H and He will be reduced by one unit

Total number of grid points                  ...   151316
Total number of batches                      ...     2383
Average number of points per batch           ...       63
Average number of grid points per atom       ...     5044
Initializing property integral containers    ... done (  0.0 sec)

SHARK setup successfully completed in   1.6 seconds

Maximum memory used throughout the entire STARTUP-calculation: 115.1 MB
-------------------------------------------------------------------------------
                                 ORCA GUESS
                   Start orbitals & Density for SCF / CASSCF
-------------------------------------------------------------------------------

------------
SCF SETTINGS
------------
Hamiltonian:
 Density Functional     Method          .... DFT(GTOs)
 Exchange Functional    Exchange        .... PBE
   PBE kappa parameter   XKappa         ....  0.804000
   PBE mue parameter    XMuePBE         ....  0.219520
 Correlation Functional Correlation     .... PBE
   PBE beta parameter  CBetaPBE         ....  0.066725
 LDA part of GGA corr.  LDAOpt          .... PW91-LDA
 Gradients option       PostSCFGGA      .... off
   NL short-range parameter             ....  6.400000
 RI-approximation to the Coulomb term is turned on
   Number of AuxJ basis functions       .... 1056


General Settings:
 Integral files         IntName         .... Diclofenac\Diclofenac_PBE_def2-TZVP\Diclofenac_PBE_def2-TZVP.orcainp
 Hartree-Fock type      HFTyp           .... RHF
 Total Charge           Charge          ....    0
 Multiplicity           Mult            ....    1
 Number of Electrons    NEL             ....  152
 Basis Dimension        Dim             ....  667
 Nuclear Repulsion      ENuc            ....   1645.2170048749 Eh

Convergence Acceleration:
 AO-DIIS                CNVDIIS         .... on
   Start iteration      DIISMaxIt       ....    12
   Startup error        DIISStart       ....  0.200000
   # of expansion vecs  DIISMaxEq       ....     5
   Bias factor          DIISBfac        ....   1.050
   Max. coefficient     DIISMaxC        ....  10.000
 MO-DIIS                CNVKDIIS        .... off
 Trust-Rad. Augm. Hess. CNVTRAH         .... auto
   Auto Start mean grad. ratio tolernc. ....  1.125000
   Auto Start start iteration           ....    50
   Auto Start num. interpolation iter.  ....    10
   Max. Number of Micro iterations      ....    24
   Max. Number of Macro iterations      .... Maxiter - #DIIS iter
   Number of Davidson start vectors     ....     2
   Converg. threshold    (grad. norm)   ....   1.000e-05
   Grad. Scal. Fac. for Micro threshold ....   0.100
   Minimum threshold for Micro iter.    ....   1.000e-02
   NR start threshold (gradient norm)   ....   1.000e-04
   Initial trust radius                 ....   0.400
   Minimum AH scaling param. (alpha)    ....   1.000
   Maximum AH scaling param. (alpha)    .... 1000.000
   Quad. conv. algorithm                .... NR
   White noise on init. David. guess    .... on
   Maximum white noise                  ....   0.010
   Pseudo random numbers                .... off
   Inactive MOs                         .... canonical
   Orbital update algorithm             .... Taylor
   Preconditioner                       .... Diag
   Full preconditioner red. dimension   ....   250
 SOSCF                  CNVSOSCF        .... on
   Start iteration      SOSCFMaxIt      ....   150
   Startup grad/error   SOSCFStart      ....  0.003300
   Hessian update       SOSCFHessUp     .... L-BFGS
 Level Shifting         CNVShift        .... on
   Level shift para.    LevelShift      ....    0.2500
   Turn off err/grad.   ShiftErr        ....    0.0010
 Zerner damping         CNVZerner       .... off
 Static damping         CNVDamp         .... on
   Fraction old density DampFac         ....    0.7000
   Max. Damping (<1)    DampMax         ....    0.9800
   Min. Damping (>=0)   DampMin         ....    0.0000
   Turn off err/grad.   DampErr         ....    0.1000

SCF Procedure:
 Maximum # iterations   MaxIter         ....   125
 SCF integral mode      SCFMode         .... Direct
   Integral package                     .... SHARK and LIBINT hybrid scheme
 Reset frequency        DirectResetFreq ....    20
 Integral Threshold     Thresh          ....  2.500e-11 Eh
 Primitive CutOff       TCut            ....  2.500e-12 Eh

Convergence Tolerance:
 Convergence Check Mode ConvCheckMode   .... Total+1el-Energy
 Convergence forced     ConvForced      .... 0
 Energy Change          TolE            ....  1.000e-08 Eh
 1-El. energy change                    ....  1.000e-05 Eh
 Orbital Gradient       TolG            ....  1.000e-05
 Orbital Rotation angle TolX            ....  1.000e-05
 DIIS Error             TolErr          ....  5.000e-07

------------------------------
INITIAL GUESS: MODEL POTENTIAL
------------------------------
Loading Hartree-Fock densities                     ... done
Calculating cut-offs                               ... done
Initializing the effective Hamiltonian             ... done
Setting up the integral package (SHARK)            ... done
Starting the Coulomb interaction                   ... done (   0.8 sec)
Making the grid                                    ... done (   0.3 sec)
Mapping shells                                     ... done
Starting the XC term evaluation                    ... done (   1.0 sec)
  promolecular density results
     # of electrons  =    151.997743842
     EX              =   -152.479502903
     EC              =     -5.314696449
     EX+EC           =   -157.794199352
Transforming the Hamiltonian                       ... done (   0.0 sec)
Diagonalizing the Hamiltonian                      ... done (   0.0 sec)
Back transforming the eigenvectors                 ... done (   0.0 sec)
Now organizing SCF variables                       ... done
                      ------------------
                      INITIAL GUESS DONE (   2.3 sec)
                      ------------------
             **** ENERGY FILE WAS UPDATED (Diclofenac\Diclofenac_PBE_def2-TZVP\Diclofenac_PBE_def2-TZVP.orcainp.en.tmp) ****
Finished Guess after   2.4 sec
Maximum memory used throughout the entire GUESS-calculation: 85.9 MB

-------------------------------------------------------------------------------------------
                                      ORCA LEAN-SCF
                              memory conserving SCF solver
-------------------------------------------------------------------------------------------

--------------------
CPCM SOLVATION MODEL
--------------------
CPCM parameters:
  Epsilon                                         ...      80.1510
  Refrac                                          ...       1.3328
  Rsolv                                           ...       1.3000
  Surface type                                    ... GAUSSIAN VDW
  Discretization scheme                           ... Constant charge density
    Threshold for H atoms                         ...       5.0000 (charges/Ang^2)
    Threshold for non-H atoms                     ...       5.0000 (charges/Ang^2)
  Epsilon function type                           ...         CPCM
Solvent:                                          ... WATER
Radii:
  Scheme                                          ... Element-dependent radii
  Radius for O  used is    3.4469 Bohr (=   1.8240 Ang.)
  Radius for C  used is    3.8550 Bohr (=   2.0400 Ang.)
  Radius for N  used is    3.5149 Bohr (=   1.8600 Ang.)
  Radius for Cl used is    3.9684 Bohr (=   2.1000 Ang.)
  Radius for H  used is    2.4944 Bohr (=   1.3200 Ang.)
Calculating surface                               ...        done! (  0.0s)
Cavity surface points                             ...         2854
Cavity Volume                                     ...    2166.3234
Cavity Surface-area                               ...    1096.9655
Calculating surface distance matrix               ...        done! (  0.0s)
Performing Cholesky decomposition & store         ...        done! (  0.2s)
Overall time for CPCM initialization              ...                 0.2s

----------------------------------------D-I-I-S--------------------------------------------
Iteration    Energy (Eh)           Delta-E    RMSDP     MaxDP     DIISErr   Damp  Time(sec)
-------------------------------------------------------------------------------------------
               ***  Starting incremental Fock matrix formation  ***
    1    -1664.3921893260901470     0.00e+00  1.51e-03  2.19e-01  2.73e-01  0.700   7.8
    2    -1664.5861424474085197    -1.94e-01  1.22e-03  1.90e-01  8.12e-02  0.700   7.0
                               ***Turning on AO-DIIS***
    3    -1664.6484561904283055    -6.23e-02  5.50e-04  4.93e-02  2.78e-02  0.700   6.9
    4    -1664.6880225070387951    -3.96e-02  1.05e-03  6.67e-02  1.17e-02  0.000   6.6
    5    -1664.7786163499702070    -9.06e-02  3.15e-04  5.18e-02  8.51e-03  0.000   6.7
                              *** Initializing SOSCF ***
---------------------------------------S-O-S-C-F--------------------------------------
Iteration    Energy (Eh)           Delta-E    RMSDP     MaxDP     MaxGrad    Time(sec)
--------------------------------------------------------------------------------------
    6    -1664.7796807211186660    -1.06e-03  1.30e-04  1.18e-02  3.23e-03     6.5
               *** Restarting incremental Fock matrix formation ***
    7    -1664.7797833935348990    -1.03e-04  1.12e-04  1.27e-02  4.25e-04     7.7
    8    -1664.7797520222959520     3.14e-05  3.76e-05  3.70e-03  1.26e-03     5.9
    9    -1664.7797990908750307    -4.71e-05  2.50e-05  1.34e-03  1.21e-04     5.8
   10    -1664.7797983655352709     7.25e-07  6.83e-06  5.55e-04  1.41e-04     5.6
   11    -1664.7798001260300680    -1.76e-06  1.24e-05  1.20e-03  6.88e-05     5.4
   12    -1664.7798000107407006     1.15e-07  4.65e-06  4.21e-04  8.24e-05     5.4
   13    -1664.7798003573354890    -3.47e-07  5.88e-06  4.65e-04  1.58e-05     5.2
   14    -1664.7798003291529767     2.82e-08  3.60e-06  3.05e-04  1.96e-05     5.1
   15    -1664.7798003840391630    -5.49e-08  4.51e-06  3.70e-04  4.59e-06     5.0
   16    -1664.7798003557229549     2.83e-08  2.20e-06  1.61e-04  6.63e-06     4.8
   17    -1664.7798003862642418    -3.05e-08  6.18e-06  5.78e-04  2.29e-06     4.7
                  *** Gradient check signals convergence ***

               *****************************************************
               *                     SUCCESS                       *
               *           SCF CONVERGED AFTER  17 CYCLES          *
               *****************************************************

             **** ENERGY FILE WAS UPDATED (Diclofenac\Diclofenac_PBE_def2-TZVP\Diclofenac_PBE_def2-TZVP.orcainp.en.tmp) ****

----------------
TOTAL SCF ENERGY
----------------

Total Energy       :      -1664.77980038626424 Eh          -45300.96142 eV

Components:
Nuclear Repulsion  :       1645.21700487485873 Eh           44768.63070 eV
Electronic Energy  :      -3309.97433745938588 Eh          -90068.98074 eV
One Electron Energy:      -5553.97556109626112 Eh         -151131.35839 eV
Two Electron Energy:       2244.00122363687524 Eh           61062.37765 eV
CPCM Dielectric    :         -0.02246780173720 Eh              -0.61138 eV

Virial components:
Potential Energy   :      -3324.92140359186214 Eh          -90475.71109 eV
Kinetic Energy     :       1660.14160320559790 Eh           45174.74966 eV
Virial Ratio       :          2.00279385636244

DFT components:
N(Alpha)           :       76.000022361027 electrons
N(Beta)            :       76.000022361027 electrons
N(Total)           :      152.000044722054 electrons
E(X)               :     -154.141174634665 Eh       
E(C)               :       -5.310454340143 Eh       
E(XC)              :     -159.451628974808 Eh       

CPCM Solvation Model Properties:
Surface-charge          :         -0.02981240126249
Corrected charge        :         -0.00000000000000
Outlying charge corr.   :          0.00004967174560 Eh               0.00135 eV
Free-energy (cav+disp)  :  This term is not implemented in the current solvation scheme

---------------
SCF CONVERGENCE
---------------

  Last Energy change         ...    3.0541e-08  Tolerance :   1.0000e-08
  Last MAX-Density change    ...    5.7846e-04  Tolerance :   1.0000e-07
  Last RMS-Density change    ...    6.1842e-06  Tolerance :   5.0000e-09
  Last DIIS Error            ...    3.2321e-03  Tolerance :   5.0000e-07
  Last Orbital Gradient      ...    2.2909e-06  Tolerance :   1.0000e-05
  Last Orbital Rotation      ...    1.3433e-05  Tolerance :   1.0000e-05


----------------
ORBITAL ENERGIES
----------------

  NO   OCC          E(Eh)            E(eV) 
   0   2.0000    -100.681217     -2739.6752 
   1   2.0000    -100.676971     -2739.5597 
   2   2.0000     -18.800303      -511.5822 
   3   2.0000     -18.748491      -510.1724 
   4   2.0000     -14.027313      -381.7026 
   5   2.0000     -10.019198      -272.6362 
   6   2.0000      -9.961123      -271.0559 
   7   2.0000      -9.960367      -271.0354 
   8   2.0000      -9.959676      -271.0166 
   9   2.0000      -9.939240      -270.4605 
  10   2.0000      -9.911996      -269.7191 
  11   2.0000      -9.904400      -269.5124 
  12   2.0000      -9.903582      -269.4902 
  13   2.0000      -9.902942      -269.4727 
  14   2.0000      -9.898381      -269.3486 
  15   2.0000      -9.893235      -269.2086 
  16   2.0000      -9.891999      -269.1750 
  17   2.0000      -9.889723      -269.1130 
  18   2.0000      -9.887026      -269.0396 
  19   2.0000      -9.194903      -250.2060 
  20   2.0000      -9.190598      -250.0889 
  21   2.0000      -7.018164      -190.9739 
  22   2.0000      -7.013996      -190.8605 
  23   2.0000      -7.008217      -190.7033 
  24   2.0000      -7.007915      -190.6951 
  25   2.0000      -7.004043      -190.5897 
  26   2.0000      -7.003352      -190.5709 
  27   2.0000      -1.012616       -27.5547 
  28   2.0000      -0.937145       -25.5010 
  29   2.0000      -0.886254       -24.1162 
  30   2.0000      -0.826904       -22.5012 
  31   2.0000      -0.814358       -22.1598 
  32   2.0000      -0.782521       -21.2935 
  33   2.0000      -0.760537       -20.6953 
  34   2.0000      -0.722721       -19.6662 
  35   2.0000      -0.695369       -18.9220 
  36   2.0000      -0.667746       -18.1703 
  37   2.0000      -0.664370       -18.0784 
  38   2.0000      -0.645424       -17.5629 
  39   2.0000      -0.575560       -15.6618 
  40   2.0000      -0.570610       -15.5271 
  41   2.0000      -0.564023       -15.3478 
  42   2.0000      -0.545511       -14.8441 
  43   2.0000      -0.534431       -14.5426 
  44   2.0000      -0.491765       -13.3816 
  45   2.0000      -0.484549       -13.1853 
  46   2.0000      -0.468413       -12.7462 
  47   2.0000      -0.452641       -12.3170 
  48   2.0000      -0.443752       -12.0751 
  49   2.0000      -0.434881       -11.8337 
  50   2.0000      -0.420254       -11.4357 
  51   2.0000      -0.414479       -11.2786 
  52   2.0000      -0.409041       -11.1306 
  53   2.0000      -0.404103       -10.9962 
  54   2.0000      -0.402368       -10.9490 
  55   2.0000      -0.393814       -10.7162 
  56   2.0000      -0.379111       -10.3161 
  57   2.0000      -0.364726        -9.9247 
  58   2.0000      -0.359123        -9.7722 
  59   2.0000      -0.350405        -9.5350 
  60   2.0000      -0.346773        -9.4362 
  61   2.0000      -0.337533        -9.1847 
  62   2.0000      -0.334989        -9.1155 
  63   2.0000      -0.331570        -9.0225 
  64   2.0000      -0.314028        -8.5451 
  65   2.0000      -0.310789        -8.4570 
  66   2.0000      -0.296369        -8.0646 
  67   2.0000      -0.295189        -8.0325 
  68   2.0000      -0.290962        -7.9175 
  69   2.0000      -0.289860        -7.8875 
  70   2.0000      -0.282545        -7.6884 
  71   2.0000      -0.253063        -6.8862 
  72   2.0000      -0.238331        -6.4853 
  73   2.0000      -0.228107        -6.2071 
  74   2.0000      -0.226625        -6.1668 
  75   2.0000      -0.200076        -5.4443 
  76   0.0000      -0.065763        -1.7895 
  77   0.0000      -0.063483        -1.7275 
  78   0.0000      -0.055814        -1.5188 
  79   0.0000      -0.047087        -1.2813 
  80   0.0000      -0.032938        -0.8963 
  81   0.0000      -0.031190        -0.8487 
  82   0.0000       0.009015         0.2453 
  83   0.0000       0.016214         0.4412 
  84   0.0000       0.036090         0.9821 
  85   0.0000       0.046104         1.2546 
  86   0.0000       0.053218         1.4481 
*Only the first 10 virtual orbitals were printed.

                    ********************************
                    * MULLIKEN POPULATION ANALYSIS *
                    ********************************

-----------------------
MULLIKEN ATOMIC CHARGES
-----------------------
   0 O :   -0.315162
   1 C :    0.238689
   2 O :   -0.344748
   3 C :   -0.249462
   4 C :   -0.062560
   5 C :   -0.168960
   6 C :   -0.160303
   7 C :   -0.113009
   8 C :   -0.247415
   9 C :    0.255909
  10 N :   -0.273260
  11 C :    0.208401
  12 C :   -0.040067
  13 Cl:   -0.092479
  14 C :   -0.155621
  15 C :   -0.173220
  16 C :   -0.160369
  17 C :    0.083900
  18 Cl:   -0.100316
  19 H :    0.335625
  20 H :    0.137189
  21 H :    0.164835
  22 H :    0.134024
  23 H :    0.135888
  24 H :    0.139442
  25 H :    0.142844
  26 H :    0.233272
  27 H :    0.149305
  28 H :    0.147775
  29 H :    0.149853
Sum of atomic charges:    0.0000000

--------------------------------
MULLIKEN REDUCED ORBITAL CHARGES
--------------------------------
  0 O s       :     3.737681  s :     3.737681
      pz      :     1.601792  p :     4.547584
      px      :     1.674140
      py      :     1.271653
      dz2     :     0.003903  d :     0.028276
      dxz     :     0.004763
      dyz     :     0.011904
      dx2y2   :     0.003487
      dxy     :     0.004220
      f0      :     0.000090  f :     0.001621
      f+1     :     0.000040
      f-1     :     0.000222
      f+2     :     0.000270
      f-2     :     0.000292
      f+3     :     0.000393
      f-3     :     0.000313

  1 C s       :     3.097454  s :     3.097454
      pz      :     0.918574  p :     2.409390
      px      :     0.774199
      py      :     0.716617
      dz2     :     0.051548  d :     0.231741
      dxz     :     0.027275
      dyz     :     0.061317
      dx2y2   :     0.041197
      dxy     :     0.050403
      f0      :     0.001662  f :     0.022728
      f+1     :     0.001494
      f-1     :     0.007639
      f+2     :     0.003085
      f-2     :     0.003232
      f+3     :     0.002860
      f-3     :     0.002756

  2 O s       :     3.786721  s :     3.786721
      pz      :     1.655937  p :     4.527702
      px      :     1.410982
      py      :     1.460784
      dz2     :     0.004662  d :     0.028593
      dxz     :     0.003096
      dyz     :     0.007203
      dx2y2   :     0.006604
      dxy     :     0.007028
      f0      :     0.000145  f :     0.001732
      f+1     :     0.000064
      f-1     :     0.000423
      f+2     :     0.000299
      f-2     :     0.000300
      f+3     :     0.000208
      f-3     :     0.000293

  3 C s       :     3.190525  s :     3.190525
      pz      :     0.950913  p :     2.974406
      px      :     0.934455
      py      :     1.089038
      dz2     :     0.014981  d :     0.079511
      dxz     :     0.024925
      dyz     :     0.012907
      dx2y2   :     0.008782
      dxy     :     0.017917
      f0      :     0.001311  f :     0.005021
      f+1     :     0.000693
      f-1     :     0.000779
      f+2     :     0.000467
      f-2     :     0.000265
      f+3     :     0.000680
      f-3     :     0.000825

  4 C s       :     3.290458  s :     3.290458
      pz      :     0.956610  p :     2.634214
      px      :     0.821015
      py      :     0.856588
      dz2     :     0.008748  d :     0.128562
      dxz     :     0.020434
      dyz     :     0.022777
      dx2y2   :     0.038116
      dxy     :     0.038487
      f0      :     0.001350  f :     0.009327
      f+1     :     0.000816
      f-1     :     0.000621
      f+2     :     0.000895
      f-2     :     0.001150
      f+3     :     0.001744
      f-3     :     0.002751

  5 C s       :     3.240904  s :     3.240904
      pz      :     0.964472  p :     2.832797
      px      :     0.947805
      py      :     0.920520
      dz2     :     0.005284  d :     0.088369
      dxz     :     0.019962
      dyz     :     0.008601
      dx2y2   :     0.026354
      dxy     :     0.028168
      f0      :     0.001280  f :     0.006889
      f+1     :     0.000636
      f-1     :     0.000518
      f+2     :     0.000631
      f-2     :     0.000839
      f+3     :     0.001110
      f-3     :     0.001875

  6 C s       :     3.215186  s :     3.215186
      pz      :     0.969271  p :     2.850556
      px      :     0.932678
      py      :     0.948607
      dz2     :     0.006285  d :     0.087735
      dxz     :     0.015025
      dyz     :     0.011154
      dx2y2   :     0.018162
      dxy     :     0.037109
      f0      :     0.001147  f :     0.006827
      f+1     :     0.000668
      f-1     :     0.000744
      f+2     :     0.001021
      f-2     :     0.000309
      f+3     :     0.001068
      f-3     :     0.001870

  7 C s       :     3.189693  s :     3.189693
      pz      :     0.962907  p :     2.828449
      px      :     0.947944
      py      :     0.917598
      dz2     :     0.004960  d :     0.088011
      dxz     :     0.006572
      dyz     :     0.021359
      dx2y2   :     0.036775
      dxy     :     0.018345
      f0      :     0.001251  f :     0.006855
      f+1     :     0.000570
      f-1     :     0.000657
      f+2     :     0.000321
      f-2     :     0.001082
      f+3     :     0.001082
      f-3     :     0.001891

  8 C s       :     3.328485  s :     3.328485
      pz      :     0.970552  p :     2.823884
      px      :     0.902039
      py      :     0.951293
      dz2     :     0.006936  d :     0.087974
      dxz     :     0.019380
      dyz     :     0.009014
      dx2y2   :     0.029306
      dxy     :     0.023338
      f0      :     0.001294  f :     0.007072
      f+1     :     0.000776
      f-1     :     0.000486
      f+2     :     0.000657
      f-2     :     0.000847
      f+3     :     0.001046
      f-3     :     0.001964

  9 C s       :     3.014880  s :     3.014880
      pz      :     0.958610  p :     2.563640
      px      :     0.768853
      py      :     0.836176
      dz2     :     0.008155  d :     0.153481
      dxz     :     0.030267
      dyz     :     0.029043
      dx2y2   :     0.041971
      dxy     :     0.044045
      f0      :     0.001551  f :     0.012090
      f+1     :     0.000991
      f-1     :     0.001029
      f+2     :     0.001005
      f-2     :     0.001685
      f+3     :     0.001979
      f-3     :     0.003850

 10 N s       :     3.488215  s :     3.488215
      pz      :     1.418976  p :     3.719598
      px      :     1.259522
      py      :     1.041100
      dz2     :     0.007202  d :     0.062234
      dxz     :     0.008041
      dyz     :     0.013878
      dx2y2   :     0.016914
      dxy     :     0.016200
      f0      :     0.000293  f :     0.003213
      f+1     :     0.000517
      f-1     :     0.000279
      f+2     :     0.000332
      f-2     :     0.000369
      f+3     :     0.000678
      f-3     :     0.000745

 11 C s       :     3.072445  s :     3.072445
      pz      :     0.875182  p :     2.538956
      px      :     0.952644
      py      :     0.711131
      dz2     :     0.031409  d :     0.167911
      dxz     :     0.025343
      dyz     :     0.048852
      dx2y2   :     0.028738
      dxy     :     0.033569
      f0      :     0.001990  f :     0.012286
      f+1     :     0.001175
      f-1     :     0.001691
      f+2     :     0.002244
      f-2     :     0.001549
      f+3     :     0.001737
      f-3     :     0.001900

 12 C s       :     3.282279  s :     3.282279
      pz      :     0.817280  p :     2.592287
      px      :     0.946920
      py      :     0.828086
      dz2     :     0.034932  d :     0.155374
      dxz     :     0.022730
      dyz     :     0.040600
      dx2y2   :     0.027724
      dxy     :     0.029389
      f0      :     0.001818  f :     0.010126
      f+1     :     0.001223
      f-1     :     0.001174
      f+2     :     0.001962
      f-2     :     0.001583
      f+3     :     0.000989
      f-3     :     0.001378

 13 Cls       :     5.902431  s :     5.902431
      pz      :     3.503526  p :    11.115214
      px      :     3.872730
      py      :     3.738958
      dz2     :     0.018381  d :     0.068997
      dxz     :     0.012944
      dyz     :     0.020804
      dx2y2   :     0.006211
      dxy     :     0.010658
      f0      :     0.000856  f :     0.005836
      f+1     :     0.000623
      f-1     :     0.001787
      f+2     :     0.000938
      f-2     :     0.001164
      f+3     :     0.000273
      f-3     :     0.000196

 14 C s       :     3.225602  s :     3.225602
      pz      :     0.959134  p :     2.834048
      px      :     0.949597
      py      :     0.925317
      dz2     :     0.015019  d :     0.088886
      dxz     :     0.013776
      dyz     :     0.020983
      dx2y2   :     0.021181
      dxy     :     0.017927
      f0      :     0.001076  f :     0.007085
      f+1     :     0.000711
      f-1     :     0.000745
      f+2     :     0.001354
      f-2     :     0.001041
      f+3     :     0.000738
      f-3     :     0.001420

 15 C s       :     3.226059  s :     3.226059
      pz      :     0.937947  p :     2.851962
      px      :     0.956837
      py      :     0.957178
      dz2     :     0.026617  d :     0.088296
      dxz     :     0.015132
      dyz     :     0.014718
      dx2y2   :     0.016660
      dxy     :     0.015168
      f0      :     0.000979  f :     0.006904
      f+1     :     0.000994
      f-1     :     0.000980
      f+2     :     0.001328
      f-2     :     0.001207
      f+3     :     0.000791
      f-3     :     0.000625

 16 C s       :     3.227992  s :     3.227992
      pz      :     0.952608  p :     2.835902
      px      :     0.968979
      py      :     0.914315
      dz2     :     0.014355  d :     0.089415
      dxz     :     0.009365
      dyz     :     0.025255
      dx2y2   :     0.017330
      dxy     :     0.023111
      f0      :     0.001058  f :     0.007060
      f+1     :     0.000886
      f-1     :     0.000518
      f+2     :     0.001261
      f-2     :     0.001168
      f+3     :     0.001012
      f-3     :     0.001158

 17 C s       :     3.221218  s :     3.221218
      pz      :     0.827512  p :     2.527720
      px      :     0.909714
      py      :     0.790494
      dz2     :     0.032315  d :     0.156943
      dxz     :     0.022431
      dyz     :     0.036709
      dx2y2   :     0.032852
      dxy     :     0.032635
      f0      :     0.001467  f :     0.010219
      f+1     :     0.001365
      f-1     :     0.001122
      f+2     :     0.001994
      f-2     :     0.001657
      f+3     :     0.001022
      f-3     :     0.001592

 18 Cls       :     5.900281  s :     5.900281
      pz      :     3.586258  p :    11.123919
      px      :     3.635705
      py      :     3.901956
      dz2     :     0.017664  d :     0.070273
      dxz     :     0.021046
      dyz     :     0.011016
      dx2y2   :     0.012680
      dxy     :     0.007867
      f0      :     0.000725  f :     0.005842
      f+1     :     0.001605
      f-1     :     0.000449
      f+2     :     0.001266
      f-2     :     0.001073
      f+3     :     0.000364
      f-3     :     0.000360

 19 H s       :     0.617644  s :     0.617644
      pz      :     0.015312  p :     0.046730
      px      :     0.014819
      py      :     0.016600

 20 H s       :     0.841067  s :     0.841067
      pz      :     0.005508  p :     0.021744
      px      :     0.005196
      py      :     0.011040

 21 H s       :     0.813278  s :     0.813278
      pz      :     0.006120  p :     0.021886
      px      :     0.007854
      py      :     0.007913

 22 H s       :     0.844197  s :     0.844197
      pz      :     0.005134  p :     0.021779
      px      :     0.004769
      py      :     0.011876

 23 H s       :     0.842309  s :     0.842309
      pz      :     0.004897  p :     0.021803
      px      :     0.007492
      py      :     0.009414

 24 H s       :     0.838824  s :     0.838824
      pz      :     0.005005  p :     0.021735
      px      :     0.012741
      py      :     0.003988

 25 H s       :     0.834977  s :     0.834977
      pz      :     0.005343  p :     0.022179
      px      :     0.005199
      py      :     0.011638

 26 H s       :     0.726491  s :     0.726491
      pz      :     0.019025  p :     0.040236
      px      :     0.014312
      py      :     0.006899

 27 H s       :     0.828769  s :     0.828769
      pz      :     0.009007  p :     0.021926
      px      :     0.008272
      py      :     0.004647

 28 H s       :     0.830293  s :     0.830293
      pz      :     0.004097  p :     0.021932
      px      :     0.005551
      py      :     0.012283

 29 H s       :     0.828203  s :     0.828203
      pz      :     0.008627  p :     0.021944
      px      :     0.005293
      py      :     0.008025



                     *******************************
                     * LOEWDIN POPULATION ANALYSIS *
                     *******************************

----------------------
LOEWDIN ATOMIC CHARGES
----------------------
   0 O :    0.118102
   1 C :   -0.496751
   2 O :    0.062307
   3 C :   -0.195898
   4 C :   -0.125563
   5 C :   -0.105455
   6 C :   -0.151021
   7 C :   -0.146332
   8 C :   -0.121620
   9 C :   -0.199408
  10 N :    0.133370
  11 C :   -0.208116
  12 C :   -0.418170
  13 Cl:    0.441059
  14 C :   -0.147670
  15 C :   -0.143241
  16 C :   -0.145993
  17 C :   -0.415565
  18 Cl:    0.427468
  19 H :    0.195336
  20 H :    0.168949
  21 H :    0.169227
  22 H :    0.160096
  23 H :    0.153008
  24 H :    0.154137
  25 H :    0.160221
  26 H :    0.198866
  27 H :    0.159142
  28 H :    0.159671
  29 H :    0.159843

-------------------------------
LOEWDIN REDUCED ORBITAL CHARGES
-------------------------------
  0 O s       :     3.335756  s :     3.335756
      pz      :     1.579036  p :     4.474074
      px      :     1.578145
      py      :     1.316894
      dz2     :     0.007370  d :     0.067475
      dxz     :     0.005481
      dyz     :     0.029674
      dx2y2   :     0.013167
      dxy     :     0.011783
      f0      :     0.000377  f :     0.004592
      f+1     :     0.000096
      f-1     :     0.001213
      f+2     :     0.000779
      f-2     :     0.000715
      f+3     :     0.000739
      f-3     :     0.000675

  1 C s       :     2.777710  s :     2.777710
      pz      :     0.994322  p :     2.659011
      px      :     0.765122
      py      :     0.899568
      dz2     :     0.208149  d :     0.917337
      dxz     :     0.099728
      dyz     :     0.265108
      dx2y2   :     0.173578
      dxy     :     0.170774
      f0      :     0.011005  f :     0.142693
      f+1     :     0.008705
      f-1     :     0.047713
      f+2     :     0.021522
      f-2     :     0.021857
      f+3     :     0.016333
      f-3     :     0.015558

  2 O s       :     3.418257  s :     3.418257
      pz      :     1.586708  p :     4.451195
      px      :     1.352413
      py      :     1.512074
      dz2     :     0.009991  d :     0.062591
      dxz     :     0.006149
      dyz     :     0.019653
      dx2y2   :     0.013398
      dxy     :     0.013400
      f0      :     0.000612  f :     0.005650
      f+1     :     0.000212
      f-1     :     0.001193
      f+2     :     0.000981
      f-2     :     0.001000
      f+3     :     0.000904
      f-3     :     0.000749

  3 C s       :     2.770876  s :     2.770876
      pz      :     1.000704  p :     3.037165
      px      :     0.995968
      py      :     1.040493
      dz2     :     0.080756  d :     0.351238
      dxz     :     0.088767
      dyz     :     0.056486
      dx2y2   :     0.056024
      dxy     :     0.069205
      f0      :     0.007899  f :     0.036620
      f+1     :     0.005893
      f-1     :     0.004255
      f+2     :     0.004531
      f-2     :     0.004823
      f+3     :     0.004383
      f-3     :     0.004837

  4 C s       :     2.711977  s :     2.711977
      pz      :     0.864692  p :     2.854623
      px      :     0.964548
      py      :     1.025382
      dz2     :     0.039373  d :     0.504050
      dxz     :     0.066711
      dyz     :     0.077959
      dx2y2   :     0.163776
      dxy     :     0.156231
      f0      :     0.003766  f :     0.054913
      f+1     :     0.004553
      f-1     :     0.004476
      f+2     :     0.005624
      f-2     :     0.007735
      f+3     :     0.011469
      f-3     :     0.017291

  5 C s       :     2.764635  s :     2.764635
      pz      :     0.888978  p :     2.920721
      px      :     1.043641
      py      :     0.988102
      dz2     :     0.025720  d :     0.378527
      dxz     :     0.069470
      dyz     :     0.026463
      dx2y2   :     0.129974
      dxy     :     0.126899
      f0      :     0.003173  f :     0.041572
      f+1     :     0.004401
      f-1     :     0.002773
      f+2     :     0.004249
      f-2     :     0.005194
      f+3     :     0.008749
      f-3     :     0.013034

  6 C s       :     2.768503  s :     2.768503
      pz      :     0.897425  p :     2.952724
      px      :     1.033941
      py      :     1.021358
      dz2     :     0.030879  d :     0.386685
      dxz     :     0.053586
      dyz     :     0.039003
      dx2y2   :     0.103259
      dxy     :     0.159958
      f0      :     0.003082  f :     0.043109
      f+1     :     0.003927
      f-1     :     0.003854
      f+2     :     0.007280
      f-2     :     0.002476
      f+3     :     0.008979
      f-3     :     0.013511

  7 C s       :     2.769288  s :     2.769288
      pz      :     0.889384  p :     2.945752
      px      :     0.992336
      py      :     1.064032
      dz2     :     0.027006  d :     0.388193
      dxz     :     0.019842
      dyz     :     0.077823
      dx2y2   :     0.156197
      dxy     :     0.107324
      f0      :     0.003208  f :     0.043099
      f+1     :     0.002899
      f-1     :     0.004620
      f+2     :     0.002353
      f-2     :     0.007409
      f+3     :     0.009151
      f-3     :     0.013460

  8 C s       :     2.766857  s :     2.766857
      pz      :     0.906197  p :     2.939776
      px      :     1.027922
      py      :     1.005656
      dz2     :     0.027375  d :     0.373421
      dxz     :     0.068736
      dyz     :     0.028328
      dx2y2   :     0.131639
      dxy     :     0.117342
      f0      :     0.003422  f :     0.041567
      f+1     :     0.004757
      f-1     :     0.002698
      f+2     :     0.004488
      f-2     :     0.005142
      f+3     :     0.008450
      f-3     :     0.012610

  9 C s       :     2.711103  s :     2.711103
      pz      :     0.894014  p :     2.820388
      px      :     0.996486
      py      :     0.929887
      dz2     :     0.045927  d :     0.597265
      dxz     :     0.091051
      dyz     :     0.093863
      dx2y2   :     0.170497
      dxy     :     0.195927
      f0      :     0.004862  f :     0.070652
      f+1     :     0.005329
      f-1     :     0.005559
      f+2     :     0.007217
      f-2     :     0.011405
      f+3     :     0.013293
      f-3     :     0.022985

 10 N s       :     2.962201  s :     2.962201
      pz      :     1.304247  p :     3.682625
      px      :     1.269633
      py      :     1.108745
      dz2     :     0.024989  d :     0.207645
      dxz     :     0.029200
      dyz     :     0.037897
      dx2y2   :     0.058955
      dxy     :     0.056604
      f0      :     0.001543  f :     0.014159
      f+1     :     0.001602
      f-1     :     0.001734
      f+2     :     0.001544
      f-2     :     0.001704
      f+3     :     0.002787
      f-3     :     0.003245

 11 C s       :     2.721828  s :     2.721828
      pz      :     0.997068  p :     2.833074
      px      :     0.938867
      py      :     0.897139
      dz2     :     0.112476  d :     0.584225
      dxz     :     0.073264
      dyz     :     0.161597
      dx2y2   :     0.111705
      dxy     :     0.125183
      f0      :     0.011007  f :     0.068989
      f+1     :     0.006608
      f-1     :     0.010477
      f+2     :     0.010339
      f-2     :     0.009262
      f+3     :     0.010685
      f-3     :     0.010610

 12 C s       :     2.782392  s :     2.782392
      pz      :     0.968399  p :     2.973253
      px      :     0.985224
      py      :     1.019630
      dz2     :     0.134026  d :     0.601323
      dxz     :     0.091660
      dyz     :     0.170581
      dx2y2   :     0.100674
      dxy     :     0.104382
      f0      :     0.010840  f :     0.061202
      f+1     :     0.007835
      f-1     :     0.008841
      f+2     :     0.010036
      f-2     :     0.009212
      f+3     :     0.006940
      f-3     :     0.007499

 13 Cls       :     5.540257  s :     5.540257
      pz      :     3.460664  p :    10.896870
      px      :     3.786149
      py      :     3.650057
      dz2     :     0.028741  d :     0.109511
      dxz     :     0.020287
      dyz     :     0.033511
      dx2y2   :     0.010735
      dxy     :     0.016236
      f0      :     0.002019  f :     0.012304
      f+1     :     0.001289
      f-1     :     0.003361
      f+2     :     0.002108
      f-2     :     0.002457
      f+3     :     0.000569
      f-3     :     0.000501

 14 C s       :     2.774209  s :     2.774209
      pz      :     0.982799  p :     2.947340
      px      :     0.931981
      py      :     1.032560
      dz2     :     0.060724  d :     0.383598
      dxz     :     0.057975
      dyz     :     0.099933
      dx2y2   :     0.084116
      dxy     :     0.080851
      f0      :     0.006500  f :     0.042523
      f+1     :     0.003882
      f-1     :     0.005999
[...]
      dxy     :     0.112037
      f0      :     0.003328  f :     0.041952
      f+1     :     0.004583
      f-1     :     0.003122
      f+2     :     0.004466
      f-2     :     0.005355
      f+3     :     0.008580
      f-3     :     0.012520

  9 C s       :     2.710780  s :     2.710780
      pz      :     0.892578  p :     2.811600
      px      :     0.992137
      py      :     0.926885
      dz2     :     0.047140  d :     0.592996
      dxz     :     0.096436
      dyz     :     0.095510
      dx2y2   :     0.159138
      dxy     :     0.194773
      f0      :     0.005026  f :     0.070457
      f+1     :     0.005250
      f-1     :     0.005731
      f+2     :     0.006994
      f-2     :     0.012325
      f+3     :     0.013607
      f-3     :     0.021524

 10 N s       :     2.951768  s :     2.951768
      pz      :     1.370401  p :     3.671030
      px      :     1.181824
      py      :     1.118805
      dz2     :     0.017053  d :     0.218311
      dxz     :     0.033837
      dyz     :     0.039515
      dx2y2   :     0.067862
      dxy     :     0.060045
      f0      :     0.001425  f :     0.014750
      f+1     :     0.000936
      f-1     :     0.001790
      f+2     :     0.002397
      f-2     :     0.001922
      f+3     :     0.002853
      f-3     :     0.003428

 11 C s       :     2.715100  s :     2.715100
      pz      :     1.008832  p :     2.842754
      px      :     0.936003
      py      :     0.897919
      dz2     :     0.117355  d :     0.597051
      dxz     :     0.082463
      dyz     :     0.176810
      dx2y2   :     0.106576
      dxy     :     0.113846
      f0      :     0.013284  f :     0.072450
      f+1     :     0.007122
      f-1     :     0.009942
      f+2     :     0.011292
      f-2     :     0.009869
      f+3     :     0.010226
      f-3     :     0.010715

 12 C s       :     2.782749  s :     2.782749
      pz      :     0.955161  p :     2.956575
      px      :     0.972414
      py      :     1.029001
      dz2     :     0.131916  d :     0.602945
      dxz     :     0.087698
      dyz     :     0.179749
      dx2y2   :     0.098319
      dxy     :     0.105264
      f0      :     0.011067  f :     0.061285
      f+1     :     0.007305
      f-1     :     0.009176
      f+2     :     0.010726
      f-2     :     0.008662
      f+3     :     0.007375
      f-3     :     0.006974

 13 Cls       :     5.546798  s :     5.546798
      pz      :     3.471227  p :    10.902658
      px      :     3.787388
      py      :     3.644043
      dz2     :     0.027126  d :     0.105227
      dxz     :     0.019279
      dyz     :     0.032687
      dx2y2   :     0.010228
      dxy     :     0.015908
      f0      :     0.001882  f :     0.011914
      f+1     :     0.001225
      f-1     :     0.003283
      f+2     :     0.002053
      f-2     :     0.002427
      f+3     :     0.000546
      f-3     :     0.000498

 14 C s       :     2.773323  s :     2.773323
      pz      :     0.989832  p :     2.946678
      px      :     0.923229
      py      :     1.033617
      dz2     :     0.067389  d :     0.378855
      dxz     :     0.052606
      dyz     :     0.104500
      dx2y2   :     0.075543
      dxy     :     0.078818
      f0      :     0.006942  f :     0.042589
      f+1     :     0.004470
      f-1     :     0.005969
      f+2     :     0.006845
      f-2     :     0.005258
      f+3     :     0.005684
      f-3     :     0.007422

 15 C s       :     2.770518  s :     2.770518
      pz      :     1.013841  p :     2.934162
      px      :     0.932838
      py      :     0.987482
      dz2     :     0.114353  d :     0.382621
      dxz     :     0.072706
      dyz     :     0.077679
      dx2y2   :     0.068410
      dxy     :     0.049474
      f0      :     0.006277  f :     0.042732
      f+1     :     0.006401
      f-1     :     0.007398
      f+2     :     0.007975
      f-2     :     0.007347
      f+3     :     0.003730
      f-3     :     0.003604

 16 C s       :     2.773050  s :     2.773050
      pz      :     0.988619  p :     2.947084
      px      :     0.942472
      py      :     1.015994
      dz2     :     0.066444  d :     0.378512
      dxz     :     0.042483
      dyz     :     0.114102
      dx2y2   :     0.073422
      dxy     :     0.082060
      f0      :     0.007001  f :     0.042692
      f+1     :     0.005337
      f-1     :     0.005075
      f+2     :     0.006900
      f-2     :     0.005200
      f+3     :     0.007185
      f-3     :     0.005993

 17 C s       :     2.782830  s :     2.782830
      pz      :     0.948078  p :     2.951763
      px      :     0.941671
      py      :     1.062015
      dz2     :     0.126517  d :     0.601448
      dxz     :     0.102411
      dyz     :     0.159327
      dx2y2   :     0.102359
      dxy     :     0.110833
      f0      :     0.010599  f :     0.061022
      f+1     :     0.007665
      f-1     :     0.008468
      f+2     :     0.010724
      f-2     :     0.008622
      f+3     :     0.006994
      f-3     :     0.007951

 18 Cls       :     5.552291  s :     5.552291
      pz      :     3.498730  p :    10.917850
      px      :     3.650590
      py      :     3.768530
      dz2     :     0.026382  d :     0.105549
      dxz     :     0.029991
      dyz     :     0.021501
      dx2y2   :     0.015506
      dxy     :     0.012169
      f0      :     0.001743  f :     0.011769
      f+1     :     0.002738
      f-1     :     0.001521
      f+2     :     0.002254
      f-2     :     0.002323
      f+3     :     0.000573
      f-3     :     0.000617

 19 H s       :     0.645085  s :     0.645085
      pz      :     0.082064  p :     0.174305
      px      :     0.047821
      py      :     0.044419

 20 H s       :     0.773420  s :     0.773420
      pz      :     0.012162  p :     0.059384
      px      :     0.012360
      py      :     0.034862

 21 H s       :     0.767114  s :     0.767114
      pz      :     0.020380  p :     0.060424
      px      :     0.020449
      py      :     0.019596

 22 H s       :     0.781193  s :     0.781193
      pz      :     0.013487  p :     0.059041
      px      :     0.013659
      py      :     0.031895

 23 H s       :     0.787049  s :     0.787049
      pz      :     0.013502  p :     0.059225
      px      :     0.019989
      py      :     0.025734

 24 H s       :     0.785910  s :     0.785910
      pz      :     0.014096  p :     0.058957
      px      :     0.033513
      py      :     0.011348

 25 H s       :     0.775733  s :     0.775733
      pz      :     0.014204  p :     0.061077
      px      :     0.013801
      py      :     0.033072

 26 H s       :     0.691909  s :     0.691909
      pz      :     0.047567  p :     0.108065
      px      :     0.044140
      py      :     0.016357

 27 H s       :     0.778405  s :     0.778405
      pz      :     0.026249  p :     0.060155
      px      :     0.020436
      py      :     0.013470

 28 H s       :     0.778680  s :     0.778680
      pz      :     0.011124  p :     0.059427
      px      :     0.014121
      py      :     0.034182

 29 H s       :     0.777975  s :     0.777975
      pz      :     0.025874  p :     0.060233
      px      :     0.014604
      py      :     0.019754



                      *****************************
                      * MAYER POPULATION ANALYSIS *
                      *****************************

  NA   - Mulliken gross atomic population
  ZA   - Total nuclear charge
  QA   - Mulliken gross atomic charge
  VA   - Mayer's total valence
  BVA  - Mayer's bonded valence
  FA   - Mayer's free valence

  ATOM       NA         ZA         QA         VA         BVA        FA
  0 O      8.3136     8.0000    -0.3136     2.0933     2.0933     0.0000
  1 C      5.7972     6.0000     0.2028     4.4617     4.4617    -0.0000
  2 O      8.3491     8.0000    -0.3491     2.1647     2.1647    -0.0000
  3 C      6.2364     6.0000    -0.2364     3.7490     3.7490    -0.0000
  4 C      6.0269     6.0000    -0.0269     3.8951     3.8951     0.0000
  5 C      6.1793     6.0000    -0.1793     3.9120     3.9120     0.0000
  6 C      6.1598     6.0000    -0.1598     3.8956     3.8956     0.0000
  7 C      6.1335     6.0000    -0.1335     3.8798     3.8798    -0.0000
  8 C      6.2358     6.0000    -0.2358     4.0073     4.0073     0.0000
  9 C      5.7556     6.0000     0.2444     3.5796     3.5796     0.0000
 10 N      7.3260     7.0000    -0.3260     3.1295     3.1295    -0.0000
 11 C      5.7963     6.0000     0.2037     3.5694     3.5694     0.0000
 12 C      5.9724     6.0000     0.0276     3.9241     3.9241     0.0000
 13 Cl    17.0934    17.0000    -0.0934     1.2733     1.2733     0.0000
 14 C      6.1771     6.0000    -0.1771     3.9410     3.9410     0.0000
 15 C      6.1397     6.0000    -0.1397     3.9037     3.9037    -0.0000
 16 C      6.1764     6.0000    -0.1764     3.9293     3.9293    -0.0000
 17 C      5.9335     6.0000     0.0665     3.8409     3.8409    -0.0000
 18 Cl    17.1025    17.0000    -0.1025     1.2759     1.2759     0.0000
 19 H      0.6683     1.0000     0.3317     0.9567     0.9567    -0.0000
 20 H      0.8612     1.0000     0.1388     0.9932     0.9932    -0.0000
 21 H      0.8398     1.0000     0.1602     0.9670     0.9670    -0.0000
 22 H      0.8654     1.0000     0.1346     0.9646     0.9646     0.0000
 23 H      0.8629     1.0000     0.1371     0.9617     0.9617    -0.0000
 24 H      0.8607     1.0000     0.1393     0.9613     0.9613    -0.0000
 25 H      0.8510     1.0000     0.1490     0.9707     0.9707    -0.0000
 26 H      0.7370     1.0000     0.2630     0.9438     0.9438    -0.0000
 27 H      0.8500     1.0000     0.1500     0.9716     0.9716    -0.0000
 28 H      0.8503     1.0000     0.1497     0.9581     0.9581    -0.0000
 29 H      0.8487     1.0000     0.1513     0.9697     0.9697     0.0000

  Mayer bond orders larger than 0.100000
B(  0-O ,  1-C ) :   1.2852 B(  0-O , 19-H ) :   0.7686 B(  1-C ,  2-O ) :   2.0935 
B(  1-C ,  3-C ) :   0.9934 B(  3-C ,  4-C ) :   0.9680 B(  3-C , 20-H ) :   0.9344 
B(  3-C , 21-H ) :   0.9106 B(  4-C ,  5-C ) :   1.3855 B(  4-C ,  9-C ) :   1.2759 
B(  5-C ,  6-C ) :   1.3832 B(  5-C , 22-H ) :   0.9737 B(  6-C ,  7-C ) :   1.3793 
B(  6-C , 23-H ) :   0.9766 B(  7-C ,  8-C ) :   1.3892 B(  7-C , 24-H ) :   0.9722 
B(  8-C ,  9-C ) :   1.3897 B(  8-C , 25-H ) :   0.9596 B(  9-C , 10-N ) :   0.8793 
B( 10-N , 11-C ) :   0.9553 B( 10-N , 19-H ) :   0.1657 B( 10-N , 26-H ) :   0.8770 
B( 11-C , 12-C ) :   1.2599 B( 11-C , 17-C ) :   1.2644 B( 12-C , 13-Cl) :   1.0203 
B( 12-C , 14-C ) :   1.3448 B( 13-Cl, 14-C ) :   0.1024 B( 14-C , 15-C ) :   1.3832 
B( 14-C , 27-H ) :   0.9650 B( 15-C , 16-C ) :   1.3790 B( 15-C , 28-H ) :   0.9674 
B( 16-C , 17-C ) :   1.3423 B( 16-C , 29-H ) :   0.9666 B( 17-C , 18-Cl) :   1.0243 


-------
TIMINGS
-------

Total SCF time: 0 days 0 hours 0 min 41 sec 

Total time                  ....      41.975 sec
Sum of individual times     ....      41.894 sec  ( 99.8%)

SCF preparation             ....       0.310 sec  (  0.7%)
Fock matrix formation       ....      40.850 sec  ( 97.3%)
  Startup                   ....       0.021 sec  (  0.1% of F)
  Split-RI-J                ....      10.775 sec  ( 26.4% of F)
  XC integration            ....      14.865 sec  ( 36.4% of F)
    Basis function eval.    ....       4.088 sec  ( 27.5% of XC)
    Density eval.           ....       4.672 sec  ( 31.4% of XC)
    XC-Functional eval.     ....       0.182 sec  (  1.2% of XC)
    XC-Potential eval.      ....       5.626 sec  ( 37.8% of XC)
  CPCM terms                ....      15.104 sec  ( 37.0% of F)
Diagonalization             ....       0.000 sec  (  0.0%)
Density matrix formation    ....       0.055 sec  (  0.1%)
Total Energy calculation    ....       0.027 sec  (  0.1%)
Population analysis         ....       0.082 sec  (  0.2%)
Orbital Transformation      ....       0.079 sec  (  0.2%)
Orbital Orthonormalization  ....       0.000 sec  (  0.0%)
DIIS solution               ....       0.089 sec  (  0.2%)
SOSCF solution              ....       0.402 sec  (  1.0%)
Finished LeanSCF after  42.1 sec

Maximum memory used throughout the entire LEANSCF-calculation: 137.5 MB

-------------------------   --------------------
FINAL SINGLE POINT ENERGY     -1664.791296897215
-------------------------   --------------------

                                *** OPTIMIZATION RUN DONE ***


------------------------------------------------------------------------------
                              ORCA PROPERTY CALCULATIONS
------------------------------------------------------------------------------

GBWName                                 ... Diclofenac\Diclofenac_PBE_def2-TZVP\Diclofenac_PBE_def2-TZVP.orcainp.gbw
Number of atoms                         ...     30
Number of basis functions               ...    667
Max core memory                         ...   1024 MB

Electric properties:
Dipole moment                           ... YES
Quadrupole moment                       ...  NO
Static polarizability (Dipole/Dipole)   ...  NO
Static polarizability (Dipole/Quad.)    ...  NO
Static polarizability (Quad./Quad.)     ...  NO
Static polarizability (Velocity)        ...  NO

Atomic electric properties:
Dipole moment                           ...  NO
Quadrupole moment                       ...  NO
Static polarizability                   ...  NO

Choice of electric origin               ... Center of mass
Position of electric origin             ...     9.240022     4.195290    -2.565437

General magnetic properties:
Magnetizability                         ...  NO

EPR properties:
g-Tensor (aka g-matrix)                 ...  NO
Zero-Field splitting spin-orbit         ...  NO
Zero-field splitting spin-spin          ...  NO
Hyperfine couplings                     ...  NO (   0 nuclei)
Quadrupole couplings                    ...  NO (   0 nuclei)
Contact density                         ...  NO (   0 nuclei)

NMR properties:
Chemical shifts                         ...  NO (   0 nuclei)
Spin-rotation constants                 ...  NO (   0 nuclei)
Spin-spin couplings                     ...  NO (   0 nuclei,    0 pairs)

Choice of magnetic origin               ... GIAO
Position of magnetic origin             ...     0.000000     0.000000     0.000000

Properties with geometric perturbations:
SCF Hessian                             ...  NO
IR spectrum                             ...  NO
VCD spectrum                            ...  NO
X-ray spectroscopy properties:
SCF XES/XAS/RIXS spectra                ...  NO


-------------
DIPOLE MOMENT
-------------

Method             : SCF
Type of density    : Electron Density
Multiplicity       :   1
Irrep              :   0
Energy             : -1664.7912968972150338 Eh
Relativity type    : 
Basis              : AO
                                X                 Y                 Z
Electronic contribution:     -3.610702482       8.938715587      -0.687644046
Nuclear contribution   :      4.892261737      -6.915810066       3.171716886
                        -----------------------------------------
Total Dipole Moment    :      1.281559255       2.022905521       2.484072840
                        -----------------------------------------
Magnitude (a.u.)       :      3.450385304
Magnitude (Debye)      :      8.770182464



--------------------
Rotational spectrum 
--------------------
 
Rotational constants in cm-1:             0.014122             0.007504             0.007374 
Rotational constants in MHz :           423.369087           224.950048           221.062818 

Dipole components along the rotational axes: 
x,y,z [a.u.] :     2.685091    -0.829190     2.001971 
x,y,z [Debye]:     6.824959    -2.107632     5.088607 

 

Dipole moment calculation done in   0.0 sec 

Maximum memory used throughout the entire PROP-calculation: 83.5 MB

--------------------------------
SUGGESTED CITATIONS FOR THIS RUN
--------------------------------

Below you find a list of papers that are relevant to this ORCA run
We neither can nor want to force you to cite these papers, but we appreciate if you do
You receive ORCA, which is the product of decades of hard work by many enthusiastic individuals, for free
The only thing we kindly ask in return is that you cite our papers,
We deeply appreciate it, if you show your appreciation for ORCA by not just citing the generic ORCA reference.

Please note that relegating all ORCA citations to the supporting information does *not* help us.
SI sections are not indexed - citations you put there will not count into any citation statistics
But we need these citations in order to attract the funding resources that allow us to do what we are doing

Therefore, if you are a happy ORCA user, please consider citing a few of the papers listed below in the main body of your paper

In addition to the list printed below, the program has created the file Diclofenac\Diclofenac_PBE_def2-TZVP\Diclofenac_PBE_def2-TZVP.orcainp.bibtex that contains the list in bibtex format
You can import this file easily into all common literature databanks and citation aid programs


List of essential papers. We consider these as the minimum necessary citations

  1. Neese,F.
     Software update: the ORCA program system, version 5.0
     WIRES Comput. Molec. Sci., 2022 12(1)e1606
     doi.org/10.1002/wcms.1606

List of papers to cite with high priority. The work reported in these papers was absolutely
necessary for this run to complete.
Our perspective: the developers of density functionals and basis sets usually get cited in chemistry papers
Good! But without the algorithms to do something with them, the functionals or basis sets would not do anything.
Hence, in our opinion, the algorithm design and method developments papers are equally worthy of getting cited

  1. Neese,F.
     An improvement of the resolution of the identity approximation for the formation of the Coulomb matrix
     J. Comp. Chem., 2003 24(14)1740-1747
     doi.org/10.1002/jcc.10318
  2. Garcia-Rates,M.; Neese,F.
     Effect of the Solute Cavity on the Solvation Energy and its Derivatives within the Framework of the Gaussian Charge Scheme
     J. Comput. Chem., 2020 41 922-939
     doi.org/10.1002/jcc.26139
  3. Neese,F.
     The SHARK Integral Generation and Digestion System
     J. Comp. Chem., 2022  1-16
     doi.org/10.1002/jcc.26942

List of suggested additional citations. These are papers that are important in the 'surrounding' of 
of this run, or papers that preceded the highly important papers. If you like your results we are grateful for a citation.

  1. Neese,F.
     The ORCA program system
     WIRES Comput. Molec. Sci., 2012 2(1)73-78
     doi.org/10.1002/wcms.81
  2. Neese,F.
     Software update: the ORCA program system, version 4.0
     WIRES Comput. Molec. Sci., 2018 8(1)1-6
     doi.org/10.1002/wcms.1327
  3. Neese,F.; Wennmohs,F.; Becker,U.; Riplinger,C.
     The ORCA quantum chemistry program package
     J. Chem. Phys., 2020 152 Art. No. L224108
     doi.org/10.1063/5.0004608

List of optional additional citations

  1. Neese,F.
     Approximate second-order SCF convergence for spin unrestricted wavefunctions
     Chem. Phys. Lett., 2000 325(1-3)93-98
     doi.org/10.1016/s0009-2614(00)00662-x

Timings for individual modules:

Sum of individual times          ...     1230.169 sec (=  20.503 min)
Startup calculation              ...       20.948 sec (=   0.349 min)   1.7 %
SCF iterations                   ...      862.544 sec (=  14.376 min)  70.1 %
Property calculations            ...        0.139 sec (=   0.002 min)   0.0 %
SCF Gradient evaluation          ...      346.411 sec (=   5.774 min)  28.2 %
Geometry relaxation              ...        0.127 sec (=   0.002 min)   0.0 %
                             ****ORCA TERMINATED NORMALLY****
TOTAL RUN TIME: 0 days 0 hours 20 minutes 31 seconds 687 msec
