
                                 *****************
                                 * O   R   C   A *
                                 *****************

                                            #,                                       
                                            ###                                      
                                            ####                                     
                                            #####                                    
                                            ######                                   
                                           ########,                                 
                                     ,,################,,,,,                         
                               ,,#################################,,                 
                          ,,##########################################,,             
                       ,#########################################, ''#####,          
                    ,#############################################,,   '####,        
                  ,##################################################,,,,####,       
                ,###########''''           ''''###############################       
              ,#####''   ,,,,##########,,,,          '''####'''          '####       
            ,##' ,,,,###########################,,,                        '##       
           ' ,,###''''                  '''############,,,                           
         ,,##''                                '''############,,,,        ,,,,,,###''
      ,#''                                            '''#######################'''  
     '                                                          ''''####''''         
             ,#######,   #######,   ,#######,      ##                                
            ,#'     '#,  ##    ##  ,#'     '#,    #''#        ,####,   ,####,        
            ##       ##  ##   ,#'  ##            #'  '#       #'       #'  '#        
            ##       ##  #######   ##           ,######,      #####,   #    #        
            '#,     ,#'  ##    ##  '#,     ,#' ,#      #,     #,   #   #,  ,#        
             '#######'   ##     ##  '#######'  #'      '#     '####' # '####'        



                #########################################################
                #                        -***-                          #
                #          Department of theory and spectroscopy        #
                #                                                       #
                #                      Frank Neese                      #
                #                                                       #
                #     Directorship, Architecture, Infrastructure        #
                #                    SHARK, DRIVERS                     #
                #        Core code/Algorithms in most modules           #
                #                                                       #
                #        Max Planck Institute fuer Kohlenforschung      #
                #                Kaiser Wilhelm Platz 1                 #
                #                 D-45470 Muelheim/Ruhr                 #
                #                      Germany                          #
                #                                                       #
                #                  All rights reserved                  #
                #                        -***-                          #
                #########################################################


                         Program Version 6.0.0  -   RELEASE   -


 With contributions from (in alphabetic order):
   Daniel Aravena         : Magnetic Suceptibility
   Michael Atanasov       : Ab Initio Ligand Field Theory (pilot matlab implementation)
   Alexander A. Auer      : GIAO ZORA, VPT2 properties, NMR spectrum
   Ute Becker             : All parallelization in ORCA, NUMFREQ, NUMCALC
   Giovanni Bistoni       : ED, misc. LED, open-shell LED, HFLD
   Martin Brehm           : Molecular dynamics
   Dmytro Bykov           : pre 5.0 version of the SCF Hessian
   Marcos Casanova-Páez   : Triplet and SCS-CIS(D). UHF-(DLPNO)-IP/EA/STEOM-CCSD. UHF-CVS-IP/STEOM-CCSD
   Vijay G. Chilkuri      : MRCI spin determinant printing, contributions to CSF-ICE
   Pauline Colinet        : FMM embedding
   Dipayan Datta          : RHF DLPNO-CCSD density
   Achintya Kumar Dutta   : EOM-CC, STEOM-CC
   Nicolas Foglia         : Exact transition moments, OPA infrastructure, MCD improvements
   Dmitry Ganyushin       : Spin-Orbit,Spin-Spin,Magnetic field MRCI
   Miquel Garcia          : C-PCM and meta-GGA Hessian, CCSD/C-PCM, Gaussian charge scheme
   Tiago L. C. Gouveia    : GS-ROHF, GS-ROCIS
   Yang Guo               : DLPNO-NEVPT2, F12-NEVPT2, CIM, IAO-localization
   Andreas Hansen         : Spin unrestricted coupled pair/coupled cluster methods
   Ingolf Harden          : AUTO-CI MPn and infrastructure 
   Benjamin Helmich-Paris : MC-RPA, TRAH-(SCF,CASSCF), AVAS, COSX integrals, SCF dyn. polar.
   Lee Huntington         : MR-EOM, pCC
   Robert Izsak           : Overlap fitted RIJCOSX, COSX-SCS-MP3, EOM
   Riya Kayal             : Wick's Theorem for AUTO-CI, AUTO-CI UHF-CCSDT
   Emily Kempfer          : AUTO-CI, RHF CISDT and CCSDT
   Christian Kollmar      : KDIIS, OOCD, Brueckner-CCSD(T), CCSD density, CASPT2, CASPT2-K, improved NEVPT2
   Axel Koslowski         : Symmetry handling
   Simone Kossmann        : Meta GGA functionals, TD-DFT gradient, OOMP2, (MP2 Hessian; deprecated post 5.0)
   Lucas Lang             : DCDCAS
   Marvin Lechner         : AUTO-CI (C++ implementation), FIC-MRCC
   Spencer Leger          : CASSCF response
   Dagmar Lenk            : GEPOL surface, SMD, ORCA-2-JSON
   Dimitrios Liakos       : Extrapolation schemes; Compound Job, initial MDCI parallelization
   Dimitrios Manganas     : Further ROCIS development; embedding schemes. LFT, Crystal Embedding
   Dimitrios Pantazis     : SARC Basis sets
   Anastasios Papadopoulos: AUTO-CI, single reference methods and gradients
   Taras Petrenko         : pre 6.0 DFT Hessian and TD-DFT gradient, (ASA, deprecated), ECA, 1-Electron XAS/XES, NRVS
   Peter Pinski           : DLPNO-MP2, DLPNO-MP2 Gradient
   Christoph Reimann      : Effective Core Potentials
   Marius Retegan         : Local ZFS, SOC
   Christoph Riplinger    : Optimizer, TS searches, QM/MM, DLPNO-CCSD(T), (RO)-DLPNO pert. Triples
   Michael Roemelt        : Original ROCIS implementation
   Masaaki Saitow         : Open-shell DLPNO-CCSD energy and density
   Barbara Sandhoefer     : DKH picture change effects
   Kantharuban Sivalingam : CASSCF convergence/infrastructure, NEVPT2 and variants, FIC-MRCI
   Bernardo de Souza      : ESD, SOC TD-DFT
   Georgi Stoychev        : AutoAux, RI-MP2 NMR, DLPNO-MP2 response, X2C
   Van Anh Tran           : RI-MP2 g-tensors
   Willem Van den Heuvel  : Paramagnetic NMR
   Zikuan Wang            : NOTCH, Electric field optimization 
   Frank Wennmohs         : Technical directorship and infrastructure
   Hang Xu                : AUTO-CI-Response properties 


 We gratefully acknowledge several colleagues who have allowed us to
 interface, adapt or use parts of their codes:
   Stefan Grimme, W. Hujo, H. Kruse, P. Pracht,  : VdW corrections, initial TS optimization,
                  C. Bannwarth, S. Ehlert,         DFT functionals, gCP, sTDA/sTD-DF
                  L. Wittmann, M. Mueller
   Ed Valeev, F. Pavosevic, A. Kumar             : LibInt (2-el integral package), F12 methods
   Garnet Chan, S. Sharma, J. Yang, R. Olivares  : DMRG
   Ulf Ekstrom                                   : XCFun DFT Library
   Mihaly Kallay                                 : mrcc  (arbitrary order and MRCC methods)
   Frank Weinhold                                : gennbo (NPA and NBO analysis)
   Simon Mueller                                 : openCOSMO-RS
   Christopher J. Cramer and Donald G. Truhlar   : smd solvation model
   Lars Goerigk                                  : TD-DFT with DH, B97 family of functionals
   V. Asgeirsson, H. Jonsson                     : NEB implementation
   FAccTs GmbH                                   : IRC, NEB, NEB-TS, DLPNO-Multilevel, CI-OPT
                                                   MM, QMMM, 2- and 3-layer-ONIOM, Crystal-QMMM,
                                                   LR-CPCM, SF, NACMEs, symmetry and pop. for TD-DFT,
                                                   nearIR, NL-DFT gradient (VV10), updates on ESD,
                                                   ML-optimized integration grids, MBIS, APM,
                                                   GOAT, DOCKER, SOLVATOR, interface openCOSMO-RS
   S Lehtola, MJT Oliveira, MAL Marques          : LibXC Library
   Liviu Ungur et al                             : ANISO software


 Your calculation uses the libint2 library for the computation of 2-el integrals
 For citations please refer to: http://libint.valeyev.net

 Your ORCA version has been built with support for libXC version: 6.2.2
 For citations please refer to: https://libxc.gitlab.io

 This ORCA versions uses:
   CBLAS   interface :  Fast vector & matrix operations
   LAPACKE interface :  Fast linear algebra routines
   Shared memory     :  Shared parallel matrices


Warning: RI is on but no J-basis has been assigned. Assigning Def2/J (nothing to worry about!)
================================================================================

----- Orbital basis set information -----
Your calculation utilizes the basis: STO-3G
   H-Ne       : W. J. Hehre, R. F. Stewart and J. A. Pople, J. Chem. Phys. 2657 (1969).
   Na-Ar      : W. J. Hehre, R. Ditchfield, R. F. Stewart and J. A. Pople, J. Chem. Phys. 2769 (1970).
   K,Ca,Ga-Kr : W. J. Pietro, B. A. Levy, W. J. Hehre and R. F. Stewart, J. Am. Chem. Soc. 19, 2225 (1980).
   Sc-Zn,Y-Cd : W. J. Pietro and W. J. Hehre, J. Comp. Chem. 4, 241 (1983).

----- AuxJ basis set information -----
Your calculation utilizes the auxiliary basis: def2/J
   F. Weigend, Phys. Chem. Chem. Phys. 8, 1057 (2006).

================================================================================
                                        WARNINGS
                       Please study these warnings very carefully!
================================================================================

WARNING: Old DensityContainer found on disk!
         Will remove this file - 
         If you want to keep old densities, please start your calculation with a different basename. 

INFO   : Checking CIS options ...

WARNING: CIS/ROCIS methods need fully converged wavefunctions
  ===> : Setting SCFConvForced true
         You can overwrite this default with %scf ConvForced false 


================================================================================
                                       INPUT FILE
================================================================================
NAME = Dexketoprofen\Dexketoprofen_B3LYP_STO-3G\Dexketoprofen_B3LYP_STO-3G.orcainp.xyz
|  1> # ORCA xyz input file 
|  2> # 
|  3> !B3LYP STO-3G CPCM(WATER) LARGEPRINT 
|  4> %tddft
|  5>     NRoots 30
|  6>     MaxDim 5
|  7> end
|  8> * xyz 0 1
|  9>   H           1.10432629265095     -0.25017660286262      0.41628034165046
| 10>   C           2.12049273522143     -0.12017104397368     -0.00666800555067
| 11>   C           2.00146543473240      0.64888162935646     -1.36078929704039
| 12>   C           2.93344614890558      0.77111726256053      1.04178516999629
| 13>   O           3.40095074869912      0.08634553457597      2.19584847406171
| 14>   O           3.14802216424400      1.99743325340103      0.92460113704324
| 15>   C           2.75073037292692     -1.52534834990381     -0.17201966900941
| 16>   C           2.00688395881983     -2.68442284322008      0.15140676788530
| 17>   C           2.56312813589325     -3.97716215043294     -0.01162080100796
| 18>   C           3.87878835292123     -4.10394145931178     -0.52123905760200
| 19>   C           4.63331206946532     -2.95683473887177     -0.83265551636494
| 20>   C           4.07509633091075     -1.67590132128676     -0.65824850487245
| 21>   C           1.75684814764124     -5.26465809349127      0.26834817990541
| 22>   O           1.95672460777164     -6.31064004361528     -0.41107310789652
| 23>   C           0.70605880272086     -5.24361620147131      1.39760284740693
| 24>   C           0.83819685089859     -4.42676392589929      2.54808419998504
| 25>   C          -0.12053911561354     -4.49083777540007      3.57818637429200
| 26>   C          -1.22082550491380     -5.36639701157543      3.46987070872111
| 27>   C          -1.35545410168228     -6.19120109549374      2.33266334583007
| 28>   C          -0.39319678894926     -6.13536600266136      1.30797152695131
| 29>   H           1.60028201213567      1.65787429786076     -1.17790547398087
| 30>   H           1.32450277129726      0.11317418982591     -2.04396560715308
| 31>   H           2.98672366499011      0.74558026371549     -1.84151023470104
| 32>   H           3.13163022557955     -0.88950810693262      2.03162852829503
| 33>   H           0.97642272523187     -2.57762490042140      0.51794853288446
| 34>   H           4.30142677179324     -5.10885334753329     -0.66463627782408
| 35>   H           5.65851705115186     -3.05996800537302     -1.21496365432871
| 36>   H           4.66895116802966     -0.78392096802544     -0.90335533785725
| 37>   H           1.70038457591794     -3.75287674932694      2.64401441003324
| 38>   H          -0.00795733195759     -3.85746199230817      4.46915991235257
| 39>   H          -1.96970346829680     -5.41036379268551      4.27319285566520
| 40>   H          -2.20882092260917     -6.87856425353842      2.24903239469741
| 41>   H          -0.48064488652785     -6.78139565568010      0.42226483753255
| 42> *
| 43> 
| 44>                          ****END OF INPUT****
================================================================================

                       ****************************
                       * Single Point Calculation *
                       ****************************

---------------------------------
CARTESIAN COORDINATES (ANGSTROEM)
---------------------------------
  H      1.104326   -0.250177    0.416280
  C      2.120493   -0.120171   -0.006668
  C      2.001465    0.648882   -1.360789
  C      2.933446    0.771117    1.041785
  O      3.400951    0.086346    2.195848
  O      3.148022    1.997433    0.924601
  C      2.750730   -1.525348   -0.172020
  C      2.006884   -2.684423    0.151407
  C      2.563128   -3.977162   -0.011621
  C      3.878788   -4.103941   -0.521239
  C      4.633312   -2.956835   -0.832656
  C      4.075096   -1.675901   -0.658249
  C      1.756848   -5.264658    0.268348
  O      1.956725   -6.310640   -0.411073
  C      0.706059   -5.243616    1.397603
  C      0.838197   -4.426764    2.548084
  C     -0.120539   -4.490838    3.578186
  C     -1.220826   -5.366397    3.469871
  C     -1.355454   -6.191201    2.332663
  C     -0.393197   -6.135366    1.307972
  H      1.600282    1.657874   -1.177905
  H      1.324503    0.113174   -2.043966
  H      2.986724    0.745580   -1.841510
  H      3.131630   -0.889508    2.031629
  H      0.976423   -2.577625    0.517949
  H      4.301427   -5.108853   -0.664636
  H      5.658517   -3.059968   -1.214964
  H      4.668951   -0.783921   -0.903355
  H      1.700385   -3.752877    2.644014
  H     -0.007957   -3.857462    4.469160
  H     -1.969703   -5.410364    4.273193
  H     -2.208821   -6.878564    2.249032
  H     -0.480645   -6.781396    0.422265

----------------------------
CARTESIAN COORDINATES (A.U.)
----------------------------
  NO LB      ZA    FRAG     MASS         X           Y           Z
   0 H     1.0000    0     1.008    2.086874   -0.472765    0.786656
   1 C     6.0000    0    12.011    4.007151   -0.227090   -0.012601
   2 C     6.0000    0    12.011    3.782222    1.226209   -2.571519
   3 C     6.0000    0    12.011    5.543410    1.457200    1.968689
   4 O     8.0000    0    15.999    6.426866    0.163169    4.149552
   5 O     8.0000    0    15.999    5.948900    3.774602    1.747243
   6 C     6.0000    0    12.011    5.198127   -2.882491   -0.325070
   7 C     6.0000    0    12.011    3.792461   -5.072824    0.286117
   8 C     6.0000    0    12.011    4.843610   -7.515747   -0.021960
   9 C     6.0000    0    12.011    7.329848   -7.755325   -0.984999
  10 C     6.0000    0    12.011    8.755691   -5.587608   -1.573491
  11 C     6.0000    0    12.011    7.700816   -3.166995   -1.243909
  12 C     6.0000    0    12.011    3.319962   -9.948762    0.507105
  13 O     8.0000    0    15.999    3.697674  -11.925381   -0.776816
  14 C     6.0000    0    12.011    1.334258   -9.908999    2.641087
  15 C     6.0000    0    12.011    1.583962   -8.365371    4.815181
  16 C     6.0000    0    12.011   -0.227786   -8.486454    6.761792
  17 C     6.0000    0    12.011   -2.307026  -10.141021    6.557105
  18 C     6.0000    0    12.011   -2.561437  -11.699675    4.408095
  19 C     6.0000    0    12.011   -0.743034  -11.594161    2.471708
  20 H     1.0000    0     1.008    3.024095    3.132928   -2.225919
  21 H     1.0000    0     1.008    2.502948    0.213868   -3.862535
  22 H     1.0000    0     1.008    5.644090    1.408943   -3.479950
  23 H     1.0000    0     1.008    5.917923   -1.680927    3.839222
  24 H     1.0000    0     1.008    1.845172   -4.871005    0.978781
  25 H     1.0000    0     1.008    8.128519   -9.654334   -1.255981
  26 H     1.0000    0     1.008   10.693048   -5.782502   -2.295949
  27 H     1.0000    0     1.008    8.823039   -1.481396   -1.707094
  28 H     1.0000    0     1.008    3.213261   -7.091909    4.996463
  29 H     1.0000    0     1.008   -0.015037   -7.289547    8.445488
  30 H     1.0000    0     1.008   -3.722200  -10.224106    8.075164
  31 H     1.0000    0     1.008   -4.174067  -12.998603    4.250055
  32 H     1.0000    0     1.008   -0.908287  -12.814981    0.797965

--------------------------------
INTERNAL COORDINATES (ANGSTROEM)
--------------------------------
 H      0   0   0     0.000000000000     0.00000000     0.00000000
 C      1   0   0     1.108323503652     0.00000000     0.00000000
 C      2   1   0     1.561811123242   108.58732062     0.00000000
 C      2   1   3     1.598293514815   106.34538071   117.68848572
 O      4   2   1     1.421033067900   115.55375699    77.57940582
 O      4   2   1     1.250450268235   124.93833276   259.23295721
 C      2   1   3     1.548891188460   107.90175489   237.61020799
 C      7   2   1     1.414696373403   120.32725176     2.41232403
 C      8   7   2     1.416742915691   120.98741884   179.13714632
 C      9   8   7     1.416596472989   119.18990590   359.26241641
 C     10   9   8     1.407884966073   120.29130262     1.42373320
 C     11  10   9     1.408123942242   120.08776884   359.01179270
 C      9   8   7     1.544705749689   122.32668811   182.94527094
 O     13   9   8     1.263187288417   120.67015828   146.60621463
 C     13   9   8     1.542665586798   118.47929121   326.46223051
 C     15  13   9     1.417150467139   122.58974696   329.60352679
 C     16  15  13     1.408683996213   120.26316875   182.88758329
 C     17  16  15     1.410307199847   120.20234029   359.83864178
 C     18  17  16     1.411264405464   119.94397344     0.64674530
 C     19  18  17     1.406787125750   119.90049211   359.83524745
 H      3   2   1     1.101117993858   109.57116137    63.62702718
 H      3   2   1     1.100904527719   110.19950145   303.74292506
 H      3   2   1     1.100534881811   110.71731402   183.33204082
 H      5   4   2     1.025569141700   104.00968566     3.56232202
 H      8   7   2     1.098912653491   119.31943714     0.19906221
 H     10   9   8     1.099560775475   119.05774027   181.13644542
 H     11  10   9     1.099018306257   120.02771040   179.17312402
 H     12  11  10     1.099258785614   119.75981132   180.01626325
 H     16  15  13     1.098496338238   119.84681166     1.89975547
 H     17  16  15     1.098941939387   119.79694124   179.70669052
 H     18  17  16     1.099125904368   120.01753434   180.29891559
 H     19  18  17     1.098952764264   120.06301757   179.63142890
 H     20  19  18     1.099762620764   120.59154553   179.28622104

---------------------------
INTERNAL COORDINATES (A.U.)
---------------------------
 H      0   0   0     0.000000000000     0.00000000     0.00000000
 C      1   0   0     2.094427889691     0.00000000     0.00000000
 C      2   1   0     2.951395295840   108.58732062     0.00000000
 C      2   1   3     3.020337024623   106.34538071   117.68848572
 O      4   2   1     2.685363325577   115.55375699    77.57940582
 O      4   2   1     2.363008551052   124.93833276   259.23295721
 C      2   1   3     2.926980157434   107.90175489   237.61020799
 C      7   2   1     2.673388708383   120.32725176     2.41232403
 C      8   7   2     2.677256112829   120.98741884   179.13714632
 C      9   8   7     2.676979376227   119.18990590   359.26241641
 C     10   9   8     2.660517013943   120.29130262     1.42373320
 C     11  10   9     2.660968613454   120.08776884   359.01179270
 C      9   8   7     2.919070824405   122.32668811   182.94527094
 O     13   9   8     2.387078030958   120.67015828   146.60621463
 C     13   9   8     2.915215475274   118.47929121   326.46223051
 C     15  13   9     2.678026273452   122.58974696   329.60352679
 C     16  15  13     2.662026962080   120.26316875   182.88758329
 C     17  16  15     2.665094372408   120.20234029   359.83864178
 C     18  17  16     2.666903228878   119.94397344     0.64674530
 C     19  18  17     2.658442396394   119.90049211   359.83524745
 H      3   2   1     2.080811449525   109.57116137    63.62702718
 H      3   2   1     2.080408056983   110.19950145   303.74292506
 H      3   2   1     2.079709527450   110.71731402   183.33204082
 H      5   4   2     1.938044809213   104.00968566     3.56232202
 H      8   7   2     2.076643960198   119.31943714     0.19906221
 H     10   9   8     2.077868733250   119.05774027   181.13644542
 H     11  10   9     2.076843614991   120.02771040   179.17312402
 H     12  11  10     2.077298055117   119.75981132   180.01626325
 H     16  15  13     2.075857238385   119.84681166     1.89975547
 H     17  16  15     2.076699302521   119.79694124   179.70669052
 H     18  17  16     2.077046945954   120.01753434   180.29891559
 H     19  18  17     2.076719758575   120.06301757   179.63142890
 H     20  19  18     2.078250165568   120.59154553   179.28622104

---------------------
BASIS SET INFORMATION
---------------------
There are 3 groups of distinct atoms

 Group   1 Type H   : 3s contracted to 1s pattern {3}
 Group   2 Type C   : 6s3p contracted to 2s1p pattern {33/3}
 Group   3 Type O   : 6s3p contracted to 2s1p pattern {33/3}

Atom   0H    basis set group =>   1
Atom   1C    basis set group =>   2
Atom   2C    basis set group =>   2
Atom   3C    basis set group =>   2
Atom   4O    basis set group =>   3
Atom   5O    basis set group =>   3
Atom   6C    basis set group =>   2
Atom   7C    basis set group =>   2
Atom   8C    basis set group =>   2
Atom   9C    basis set group =>   2
Atom  10C    basis set group =>   2
Atom  11C    basis set group =>   2
Atom  12C    basis set group =>   2
Atom  13O    basis set group =>   3
Atom  14C    basis set group =>   2
Atom  15C    basis set group =>   2
Atom  16C    basis set group =>   2
Atom  17C    basis set group =>   2
Atom  18C    basis set group =>   2
Atom  19C    basis set group =>   2
Atom  20H    basis set group =>   1
Atom  21H    basis set group =>   1
Atom  22H    basis set group =>   1
Atom  23H    basis set group =>   1
Atom  24H    basis set group =>   1
Atom  25H    basis set group =>   1
Atom  26H    basis set group =>   1
Atom  27H    basis set group =>   1
Atom  28H    basis set group =>   1
Atom  29H    basis set group =>   1
Atom  30H    basis set group =>   1
Atom  31H    basis set group =>   1
Atom  32H    basis set group =>   1

-------------------------
BASIS SET IN INPUT FORMAT
-------------------------

 # Basis set for element : H 
 NewGTO H 
 S 3 
   1       3.4252509100      0.1543289707
   2       0.6239137300      0.5353281424
   3       0.1688554000      0.4446345420
  end;

 # Basis set for element : C 
 NewGTO C 
 S 3 
   1      71.6168370000      0.1543289700
   2      13.0450960000      0.5353281400
   3       3.5305122000      0.4446345400
 S 3 
   1       2.9412494000     -0.0999672301
   2       0.6834831000      0.3995128303
   3       0.2222899000      0.7001154705
 P 3 
   1       2.9412494000      0.1559162721
   2       0.6834831000      0.6076837282
   3       0.2222899000      0.3919573953
  end;

 # Basis set for element : O 
 NewGTO O 
 S 3 
   1     130.7093200000      0.1543289687
   2      23.8088610000      0.5353281356
   3       6.4436083000      0.4446345363
 S 3 
   1       5.0331513000     -0.0999672287
   2       1.1695961000      0.3995128246
   3       0.3803890000      0.7001154606
 P 3 
   1       5.0331513000      0.1559162685
   2       1.1695961000      0.6076837141
   3       0.3803890000      0.3919573862
  end;

---------------------------------
AUXILIARY/J BASIS SET INFORMATION
---------------------------------
There are 3 groups of distinct atoms

 Group   1 Type H   : 5s2p1d contracted to 3s1p1d pattern {311/2/1}
 Group   2 Type C   : 12s5p4d2f1g contracted to 6s4p3d1f1g pattern {711111/2111/211/2/1}
 Group   3 Type O   : 12s5p4d2f1g contracted to 6s4p3d1f1g pattern {711111/2111/211/2/1}

Atom   0H    basis set group =>   1
Atom   1C    basis set group =>   2
Atom   2C    basis set group =>   2
Atom   3C    basis set group =>   2
Atom   4O    basis set group =>   3
Atom   5O    basis set group =>   3
Atom   6C    basis set group =>   2
Atom   7C    basis set group =>   2
Atom   8C    basis set group =>   2
Atom   9C    basis set group =>   2
Atom  10C    basis set group =>   2
Atom  11C    basis set group =>   2
Atom  12C    basis set group =>   2
Atom  13O    basis set group =>   3
Atom  14C    basis set group =>   2
Atom  15C    basis set group =>   2
Atom  16C    basis set group =>   2
Atom  17C    basis set group =>   2
Atom  18C    basis set group =>   2
Atom  19C    basis set group =>   2
Atom  20H    basis set group =>   1
Atom  21H    basis set group =>   1
Atom  22H    basis set group =>   1
Atom  23H    basis set group =>   1
Atom  24H    basis set group =>   1
Atom  25H    basis set group =>   1
Atom  26H    basis set group =>   1
Atom  27H    basis set group =>   1
Atom  28H    basis set group =>   1
Atom  29H    basis set group =>   1
Atom  30H    basis set group =>   1
Atom  31H    basis set group =>   1
Atom  32H    basis set group =>   1

-------------------------------------
AUXILIARY/J BASIS SET IN INPUT FORMAT
-------------------------------------

 # Auxiliary/J basis set for element : H 
 NewAuxJGTO H 
 S 3 
   1      15.6752927000      0.1007184237
   2       3.6063578000      0.3404257499
   3       1.2080016000      0.6491996172
 S 1 
   1       0.4726794000      1.0000000000
 S 1 
   1       0.2018100000      1.0000000000
 P 2 
   1       2.0281365000      0.5596620919
   2       0.5358730000      0.5596620919
 D 1 
   1       2.2165124000      1.0000000000
  end;

 # Auxiliary/J basis set for element : C 
 NewAuxJGTO C 
 S 7 
   1    1861.0916331000      0.0134602335
   2     642.9939764000      0.0299160374
   3     235.1105725000      0.1008649584
   4      90.7028894000      0.2370970548
   5      36.7794552000      0.3924037254
   6      15.6046273000      0.3195862154
   7       6.8907294000      0.0530104441
 S 1 
   1       3.1478850000     -1.0000000000
 S 1 
   1       1.4777287000      1.0000000000
 S 1 
   1       0.7076466000      1.0000000000
 S 1 
   1       0.3430122000      1.0000000000
 S 1 
   1       0.1669453000      1.0000000000
 P 2 
   1      13.5472892000     -0.6769313712
   2       5.4669419000     -0.3779500978
 P 1 
   1       2.1751721000      1.0000000000
 P 1 
   1       0.8582194000      1.0000000000
 P 1 
   1       0.3376720000      1.0000000000
 D 2 
   1       5.9287253000     -0.3533329857
   2       1.9809209000     -0.7456525731
 D 1 
   1       0.8055417000     -1.0000000000
 D 1 
   1       0.3531244000     -1.0000000000
 F 2 
   1       1.6755626000      0.6311076882
   2       0.5997536000      0.4968166032
 G 1 
   1       1.0024600000     -1.0000000000
  end;

 # Auxiliary/J basis set for element : O 
 NewAuxJGTO O 
 S 7 
   1    2876.8216605000      0.0168151159
   2    1004.7443032000      0.0340137548
   3     369.7579954000      0.1194951309
   4     142.9442404000      0.2664627624
   5      57.8366425000      0.4202764046
   6      24.3864983000      0.2765077335
   7      10.6622662000      0.0057008815
 S 1 
   1       4.8070437000     -1.0000000000
 S 1 
   1       2.2210770000      1.0000000000
 S 1 
   1       1.0447795000      1.0000000000
 S 1 
   1       0.4968425000      1.0000000000
 S 1 
   1       0.2371384000      1.0000000000
 P 2 
   1      64.2613382000     -0.2731534179
   2      16.3006076000     -0.8168011598
 P 1 
   1       4.3550542000      1.0000000000
 P 1 
   1       1.2019554000      1.0000000000
 P 1 
   1       0.3354196000      1.0000000000
 D 2 
   1       9.2146611000     -0.4661230638
   2       2.8435251000     -0.6600908911
 D 1 
   1       0.9955759000     -1.0000000000
 D 1 
   1       0.3649441000     -1.0000000000
 F 2 
   1       2.6420115000      0.5931563945
   2       0.7345613000      0.5931563945
 G 1 
   1       1.3931000000     -1.0000000000
  end;


Checking for AutoStart:
The File: Dexketoprofen\Dexketoprofen_B3LYP_STO-3G\Dexketoprofen_B3LYP_STO-3G.orcainp.gbw exists
Trying to determine its content:
     ... Fine, the file contains calculation information
     ... Fine, the calculation information was read
     ... Fine, the file contains a basis set
     ... Fine, the basis set was read
     ... Fine, the file contains a geometry
     ... Fine, the geometry was read
     ... Fine, the file contains a set of orbitals
     ... Fine, the orbitals can be read
     => possible old guess file was deleted
     => GBW file was renamed to GES file
     => GES file is set as startup file
     => Guess is set to MORead
     ... now leaving AutoStart

------------------------------------------------------------------------------
                             ORCA STARTUP CALCULATIONS
                           -- RI-GTO INTEGRALS CHOSEN --
------------------------------------------------------------------------------
------------------------------------------------------------------------------
                   ___                                                        
                  /   \      - P O W E R E D   B Y -                         
                 /     \                                                     
                 |  |  |   _    _      __       _____    __    __             
                 |  |  |  | |  | |    /  \     |  _  \  |  |  /  |          
                  \  \/   | |  | |   /    \    | | | |  |  | /  /          
                 / \  \   | |__| |  /  /\  \   | |_| |  |  |/  /          
                |  |  |   |  __  | /  /__\  \  |    /   |      \           
                |  |  |   | |  | | |   __   |  |    \   |  |\   \          
                \     /   | |  | | |  |  |  |  | |\  \  |  | \   \       
                 \___/    |_|  |_| |__|  |__|  |_| \__\ |__|  \__/        
                                                                              
                      - O R C A' S   B I G   F R I E N D -                    
                                      &                                       
                       - I N T E G R A L  F E E D E R -                       
                                                                              
 v1 FN, 2020, v2 2021, v3 2022-2024                                           
------------------------------------------------------------------------------


----------------------
SHARK INTEGRAL PACKAGE
----------------------

Number of atoms                             ...     33
Number of basis functions                   ...    109
Number of shells                            ...     71
Maximum angular momentum                    ...      1
Integral batch strategy                     ... SHARK/LIBINT Hybrid
RI-J (if used) integral strategy            ... SPLIT-RIJ (Revised 2003 algorithm where possible)
Printlevel                                  ...      1
Contraction scheme used                     ... SEGMENTED contraction
Prescreening option                         ... SCHWARTZ
   Thresh                                   ... 1.000e-10
   Tcut                                     ... 1.000e-11
   Tpresel                                  ... 1.000e-11 
Coulomb Range Separation                    ... NOT USED
Exchange Range Separation                   ... NOT USED
Multipole approximations                    ... NOT USED
Finite Nucleus Model                        ... NOT USED
CABS basis                                  ... NOT available
Auxiliary Coulomb fitting basis             ... AVAILABLE
   # of basis functions in Aux-J            ...   1085
   # of shells in Aux-J                     ...    355
   Maximum angular momentum in Aux-J        ...      4
Auxiliary J/K fitting basis                 ... NOT available
Auxiliary Correlation fitting basis         ... NOT available
Auxiliary 'external' fitting basis          ... NOT available

Checking pre-screening integrals            ... done (  0.0 sec) Dimension = 71
Check shell pair data                       ... done (  0.0 sec)
Shell pair information
Shell pair cut-off parameter TPreSel        ...   1.0e-11
Total number of shell pairs                 ...      2556
Shell pairs after pre-screening             ...      1990
Total number of primitive shell pairs       ...     23004
Primitive shell pairs kept                  ...     11056
          la=0 lb=0:    985 shell pairs
          la=1 lb=0:    828 shell pairs
          la=1 lb=1:    177 shell pairs

Calculating one electron integrals          ... done (  0.0 sec)
Calculating RI/J V-Matrix + Cholesky decomp.... done (  0.0 sec)
Calculating Nuclear repulsion               ... done (  0.0 sec) ENN=   1291.960724133640 Eh

Diagonalization of the overlap matrix:
Smallest eigenvalue                        ... 1.806e-01
Time for diagonalization                   ...    0.000 sec
Threshold for overlap eigenvalues          ... 1.000e-07
Number of eigenvalues below threshold      ... 0
Time for construction of square roots      ...    0.002 sec
Total time needed                          ...    0.003 sec

-------------------
DFT GRID GENERATION
-------------------

General Integration Accuracy     IntAcc      ... 4.388
Radial Grid Type                 RadialGrid  ... OptM3 with GC (2021)
Angular Grid (max. ang.)         AngularGrid ... 4 (Lebedev-302)
Angular grid pruning method      GridPruning ... 4 (adaptive)
Weight generation scheme         WeightScheme... mBecke (2022)
Basis function cutoff            BFCut       ... 1.0000e-10
Integration weight cutoff        WCut        ... 1.0000e-14
Partially contracted basis set               ... off
Rotationally invariant grid construction     ... off
Angular grids for H and He will be reduced by one unit

Total number of grid points                  ...   158657
Total number of batches                      ...     2495
Average number of points per batch           ...       63
Average number of grid points per atom       ...     4808

--------------------
COSX GRID GENERATION
--------------------

GRIDX 1
-------
General Integration Accuracy     IntAcc      ... 3.816
Radial Grid Type                 RadialGrid  ... OptM3 with GC (2021)
Angular Grid (max. ang.)         AngularGrid ... 1 (Lebedev-50)
Angular grid pruning method      GridPruning ... 4 (adaptive)
Weight generation scheme         WeightScheme... mBecke (2022)
Basis function cutoff            BFCut       ... 1.0000e-10
Integration weight cutoff        WCut        ... 1.0000e-14
Partially contracted basis set               ... on
Rotationally invariant grid construction     ... off
Angular grids for H and He will be reduced by one unit

Total number of grid points                  ...    20140
Total number of batches                      ...      174
Average number of points per batch           ...      115
Average number of grid points per atom       ...      610
UseSFitting                                  ... on

GRIDX 2
-------
General Integration Accuracy     IntAcc      ... 4.020
Radial Grid Type                 RadialGrid  ... OptM3 with GC (2021)
Angular Grid (max. ang.)         AngularGrid ... 2 (Lebedev-110)
Angular grid pruning method      GridPruning ... 4 (adaptive)
Weight generation scheme         WeightScheme... mBecke (2022)
Basis function cutoff            BFCut       ... 1.0000e-10
Integration weight cutoff        WCut        ... 1.0000e-14
Partially contracted basis set               ... on
Rotationally invariant grid construction     ... off
Angular grids for H and He will be reduced by one unit

Total number of grid points                  ...    44032
Total number of batches                      ...      360
Average number of points per batch           ...      122
Average number of grid points per atom       ...     1334
UseSFitting                                  ... on

GRIDX 3
-------
General Integration Accuracy     IntAcc      ... 4.338
Radial Grid Type                 RadialGrid  ... OptM3 with GC (2021)
Angular Grid (max. ang.)         AngularGrid ... 3 (Lebedev-194)
Angular grid pruning method      GridPruning ... 4 (adaptive)
Weight generation scheme         WeightScheme... mBecke (2022)
Basis function cutoff            BFCut       ... 1.0000e-10
Integration weight cutoff        WCut        ... 1.0000e-14
Partially contracted basis set               ... on
Rotationally invariant grid construction     ... off
Angular grids for H and He will be reduced by one unit

Total number of grid points                  ...    96433
Total number of batches                      ...      766
Average number of points per batch           ...      125
Average number of grid points per atom       ...     2922
UseSFitting                                  ... on
Initializing property integral containers    ... done (  0.0 sec)

SHARK setup successfully completed in   1.8 seconds

Maximum memory used throughout the entire STARTUP-calculation: 55.1 MB
-------------------------------------------------------------------------------
                                 ORCA GUESS
                   Start orbitals & Density for SCF / CASSCF
-------------------------------------------------------------------------------

------------
SCF SETTINGS
------------
Hamiltonian:
 Density Functional     Method          .... DFT(GTOs)
 Exchange Functional    Exchange        .... B88
   X-Alpha parameter    XAlpha          ....  0.666667
   Becke's b parameter  XBeta           ....  0.004200
 Correlation Functional Correlation     .... LYP
 LDA part of GGA corr.  LDAOpt          .... VWN-5
 Gradients option       PostSCFGGA      .... off
 Hybrid DFT is turned on
   Fraction HF Exchange ScalHFX         ....  0.200000
   Scaling of DF-GGA-X  ScalDFX         ....  0.720000
   Scaling of DF-GGA-C  ScalDFC         ....  0.810000
   Scaling of DF-LDA-C  ScalLDAC        ....  1.000000
   Perturbative correction              ....  0.000000
   NL short-range parameter             ....  4.800000
 RI-approximation to the Coulomb term is turned on
   Number of AuxJ basis functions       .... 1085
   RIJ-COSX (HFX calculated with COS-X)).... on


General Settings:
 Integral files         IntName         .... Dexketoprofen\Dexketoprofen_B3LYP_STO-3G\Dexketoprofen_B3LYP_STO-3G.orcainp
 Hartree-Fock type      HFTyp           .... RHF
 Total Charge           Charge          ....    0
 Multiplicity           Mult            ....    1
 Number of Electrons    NEL             ....  134
 Basis Dimension        Dim             ....  109
 Nuclear Repulsion      ENuc            ....   1291.9607241336 Eh

Convergence Acceleration:
 AO-DIIS                CNVDIIS         .... on
   Start iteration      DIISMaxIt       ....    12
   Startup error        DIISStart       ....  0.200000
   # of expansion vecs  DIISMaxEq       ....     5
   Bias factor          DIISBfac        ....   1.050
   Max. coefficient     DIISMaxC        ....  10.000
 MO-DIIS                CNVKDIIS        .... off
 Trust-Rad. Augm. Hess. CNVTRAH         .... auto
   Auto Start mean grad. ratio tolernc. ....  1.125000
   Auto Start start iteration           ....     1
   Auto Start num. interpolation iter.  ....    10
   Max. Number of Micro iterations      ....    24
   Max. Number of Macro iterations      .... Maxiter - #DIIS iter
   Number of Davidson start vectors     ....     2
   Converg. threshold    (grad. norm)   ....   5.000e-05
   Grad. Scal. Fac. for Micro threshold ....   0.100
   Minimum threshold for Micro iter.    ....   1.000e-02
   NR start threshold (gradient norm)   ....   1.000e-04
   Initial trust radius                 ....   0.400
   Minimum AH scaling param. (alpha)    ....   1.000
   Maximum AH scaling param. (alpha)    .... 1000.000
   Quad. conv. algorithm                .... NR
   White noise on init. David. guess    .... on
   Maximum white noise                  ....   0.010
   Pseudo random numbers                .... off
   Inactive MOs                         .... canonical
   Orbital update algorithm             .... Taylor
   Preconditioner                       .... Diag
   Full preconditioner red. dimension   ....   250
 SOSCF                  CNVSOSCF        .... on
   Start iteration      SOSCFMaxIt      ....   150
   Startup grad/error   SOSCFStart      ....  0.003300
   Hessian update       SOSCFHessUp     .... L-BFGS
 Level Shifting         CNVShift        .... on
   Level shift para.    LevelShift      ....    0.2500
   Turn off err/grad.   ShiftErr        ....    0.0010
 Zerner damping         CNVZerner       .... off
 Static damping         CNVDamp         .... on
   Fraction old density DampFac         ....    0.7000
   Max. Damping (<1)    DampMax         ....    0.9800
   Min. Damping (>=0)   DampMin         ....    0.0000
   Turn off err/grad.   DampErr         ....    0.1000

SCF Procedure:
 Maximum # iterations   MaxIter         ....   125
 SCF integral mode      SCFMode         .... Direct
   Integral package                     .... SHARK and LIBINT hybrid scheme
 Reset frequency        DirectResetFreq ....    20
 Integral Threshold     Thresh          ....  1.000e-10 Eh
 Primitive CutOff       TCut            ....  1.000e-11 Eh

Convergence Tolerance:
 Convergence Check Mode ConvCheckMode   .... Total+1el-Energy
 Convergence forced     ConvForced      .... 1
 Energy Change          TolE            ....  1.000e-06 Eh
 1-El. energy change                    ....  1.000e-03 Eh
 Orbital Gradient       TolG            ....  5.000e-05
 Orbital Rotation angle TolX            ....  5.000e-05
 DIIS Error             TolErr          ....  1.000e-06

---------------------
INITIAL GUESS: MOREAD
---------------------
Guess MOs are being read from file: Dexketoprofen\Dexketoprofen_B3LYP_STO-3G\Dexketoprofen_B3LYP_STO-3G.orcainp.ges
Input Geometry matches current geometry (good)
Input basis set matches current basis set (good)
Occupation numbers will be reassigned to an Aufbau configuration
MOs were renormalized
MOs were reorthogonalized (Cholesky)
                      ------------------
                      INITIAL GUESS DONE (   0.0 sec)
                      ------------------
----------------------
INITIAL GUESS ORBITALS
----------------------
                      0         1         2         3         4         5   
                 -18.92386 -18.88828 -18.86429 -10.09675 -10.08287 -10.03781
                   2.00000   2.00000   2.00000   2.00000   2.00000   2.00000
                  --------  --------  --------  --------  --------  --------
  0H   1s        -0.000061  0.000002 -0.000042 -0.000128 -0.000010  0.009217
  1C   1s         0.000037  0.000000  0.000023 -0.007971  0.000014 -0.989694
  1C   2s        -0.000263 -0.000001 -0.000161 -0.006473  0.000012 -0.044282
  1C   1pz       -0.000457 -0.000000  0.000205 -0.003261 -0.000001 -0.000119
  1C   1px       -0.000180 -0.000001 -0.000016 -0.002632  0.000001  0.000578
  1C   1py        0.000229 -0.000001 -0.000466 -0.002994 -0.000004  0.000413
  2C   1s        -0.000002 -0.000000  0.000006 -0.000313 -0.000000  0.016766
  2C   2s        -0.000042  0.000000 -0.000029  0.000292 -0.000001  0.007891
  2C   1pz        0.000030  0.000000  0.000062 -0.000116 -0.000001  0.004871
  2C   1px        0.000059  0.000000  0.000013 -0.000182 -0.000000  0.000415
  2C   1py        0.000083 -0.000000 -0.000103 -0.000148  0.000000 -0.002797
  3C   1s        -0.000612  0.000000 -0.000689  0.991245  0.000001 -0.009428
  3C   2s         0.004969  0.000000  0.007995  0.037460 -0.000000  0.006403
  3C   1pz        0.004219 -0.000000 -0.000628  0.000077  0.000000 -0.003656
  3C   1px        0.001747 -0.000000  0.001307  0.000168 -0.000000 -0.002789
  3C   1py       -0.002310  0.000000  0.007279  0.000997  0.000000 -0.003091
  4O   1s        -0.993514  0.000001  0.001069  0.000650 -0.000000  0.000037
  4O   2s        -0.028761 -0.000000 -0.000353 -0.005589  0.000002 -0.000342
  4O   1pz        0.003381  0.000000  0.000020  0.002896 -0.000000  0.000176
  4O   1px        0.002029  0.000000 -0.000099  0.001049 -0.000000  0.000137
  4O   1py        0.001441  0.000000 -0.000480 -0.002373 -0.000001  0.000222
  5O   1s        -0.000981 -0.000000 -0.993579  0.000554  0.000000  0.000023
  5O   2s        -0.000327 -0.000000 -0.028866 -0.007619 -0.000000 -0.000125
  5O   1pz       -0.000497  0.000000 -0.000567 -0.000385 -0.000000  0.000315
  5O   1px       -0.000219  0.000000  0.000996  0.000516  0.000000  0.000196
  5O   1py        0.000215  0.000000  0.005737  0.003145  0.000000  0.000091
  6C   1s         0.000056  0.000001 -0.000005 -0.000434  0.000112  0.030123
  6C   2s        -0.000283 -0.000019  0.000002  0.000084  0.000052  0.008624
  6C   1pz       -0.000345  0.000000  0.000041 -0.000005  0.000005  0.000598
  6C   1px       -0.000125  0.000004  0.000058 -0.000097  0.000018 -0.002383
  6C   1py       -0.000032  0.000013 -0.000001  0.000007 -0.000058  0.005205
  7C   1s         0.000013  0.000001  0.000001  0.000043  0.000060 -0.000124
  7C   2s        -0.000034  0.000056 -0.000004 -0.000006 -0.000245 -0.000506
  7C   1pz       -0.000089 -0.000016 -0.000008  0.000061 -0.000076  0.000006
  7C   1px       -0.000021  0.000063 -0.000002  0.000024  0.000138 -0.000007
  7C   1py       -0.000017  0.000002 -0.000006  0.000001  0.000080 -0.000344
  8C   1s        -0.000001 -0.000025  0.000000 -0.000000  0.007261  0.000355
  8C   2s         0.000004  0.000287 -0.000001 -0.000001  0.007386  0.000056
  8C   1pz        0.000012 -0.000322  0.000000 -0.000008  0.000842 -0.000013
  8C   1px        0.000000  0.000176  0.000000 -0.000002 -0.002793  0.000036
  8C   1py        0.000005 -0.000402 -0.000001 -0.000000 -0.004730  0.000052
  9C   1s        -0.000000 -0.000006  0.000000  0.000002  0.000241  0.000096
  9C   2s         0.000002 -0.000010 -0.000000  0.000002 -0.000381 -0.000013
  9C   1pz       -0.000002  0.000004 -0.000000  0.000000  0.000031  0.000002
  9C   1px       -0.000001  0.000147 -0.000000 -0.000002  0.000001 -0.000008
  9C   1py        0.000000 -0.000080  0.000000  0.000003  0.000028  0.000021
 10C   1s         0.000000  0.000001  0.000000 -0.000018  0.000128  0.000306
 10C   2s        -0.000001 -0.000006 -0.000003 -0.000043  0.000117  0.000083
 10C   1pz        0.000003 -0.000004  0.000001  0.000017  0.000034  0.000026
 10C   1px        0.000003 -0.000012 -0.000000  0.000017 -0.000088 -0.000068
 10C   1py        0.000002  0.000013 -0.000003 -0.000027 -0.000036  0.000026
 11C   1s         0.000007 -0.000000 -0.000000 -0.000033  0.000041 -0.000139
 11C   2s        -0.000002 -0.000000  0.000003  0.000118 -0.000009 -0.000524
 11C   1pz       -0.000030  0.000003 -0.000016 -0.000128  0.000006 -0.000046
 11C   1px       -0.000024 -0.000003  0.000020  0.000055 -0.000013  0.000141
 11C   1py       -0.000018 -0.000000  0.000003 -0.000040 -0.000018 -0.000178
 12C   1s        -0.000000  0.000696  0.000000  0.000001 -0.990987 -0.000009
 12C   2s         0.000001 -0.007791 -0.000000  0.000000 -0.039559  0.000006
 12C   1pz        0.000000  0.003890  0.000000  0.000000  0.000345 -0.000001
 12C   1px       -0.000000 -0.001145  0.000000  0.000000 -0.000109  0.000003
 12C   1py        0.000001  0.005988 -0.000000  0.000000  0.000547  0.000005
 13O   1s         0.000001  0.993616 -0.000000  0.000000 -0.000594  0.000000
 13O   2s         0.000000  0.028555  0.000000 -0.000000  0.007706  0.000000
 13O   1pz       -0.000000  0.003030 -0.000000  0.000000  0.001846  0.000000
 13O   1px        0.000000 -0.000892 -0.000000 -0.000000 -0.000542 -0.000000
 13O   1py        0.000000  0.004664  0.000000 -0.000000  0.002839 -0.000000
 14C   1s        -0.000000 -0.000026  0.000000 -0.000000  0.006995  0.000002
 14C   2s         0.000000  0.000289 -0.000000 -0.000000  0.007399 -0.000000
 14C   1pz        0.000000 -0.000250 -0.000000  0.000000 -0.004105 -0.000000
 14C   1px       -0.000002 -0.000012 -0.000000  0.000000  0.003741 -0.000000
 14C   1py       -0.000000 -0.000492  0.000000 -0.000000 -0.000289 -0.000000
 15C   1s        -0.000005  0.000001 -0.000000 -0.000008  0.000049  0.000018
 15C   2s         0.000043  0.000058  0.000001 -0.000008 -0.000240  0.000006
 15C   1pz        0.000003 -0.000001 -0.000000 -0.000000  0.000087 -0.000000
 15C   1px        0.000030 -0.000058  0.000000 -0.000005 -0.000139  0.000004
 15C   1py        0.000022 -0.000033  0.000000 -0.000004 -0.000074  0.000002
 16C   1s         0.000000  0.000001 -0.000000  0.000000  0.000094 -0.000000
 16C   2s         0.000000 -0.000020  0.000000 -0.000000  0.000051  0.000000
 16C   1pz       -0.000001  0.000011 -0.000000  0.000000 -0.000057 -0.000000
 16C   1px       -0.000001 -0.000008 -0.000000  0.000000 -0.000003 -0.000000
 16C   1py       -0.000002  0.000004 -0.000000  0.000000 -0.000026 -0.000000
 17C   1s        -0.000000 -0.000000 -0.000000 -0.000000  0.000039  0.000000
 17C   2s        -0.000000 -0.000000 -0.000000  0.000000 -0.000011 -0.000000
 17C   1pz       -0.000000 -0.000001 -0.000000  0.000000 -0.000016 -0.000000
 17C   1px        0.000000  0.000003 -0.000000 -0.000000  0.000015 -0.000000
 17C   1py       -0.000000  0.000003 -0.000000  0.000000  0.000002 -0.000000
 18C   1s        -0.000000  0.000001 -0.000000 -0.000000  0.000122  0.000000
 18C   2s        -0.000000 -0.000008 -0.000000  0.000000  0.000116  0.000000
 18C   1pz        0.000000  0.000016  0.000000 -0.000000 -0.000032 -0.000000
 18C   1px        0.000000  0.000007  0.000000 -0.000000  0.000085  0.000000
 18C   1py        0.000000  0.000006  0.000000 -0.000000  0.000042  0.000000
 19C   1s        -0.000000 -0.000007 -0.000000 -0.000000  0.000239  0.000000
 19C   2s        -0.000000 -0.000006  0.000000 -0.000000 -0.000381 -0.000000
 19C   1pz        0.000000 -0.000098  0.000000 -0.000000  0.000008  0.000000
 19C   1px       -0.000000 -0.000123  0.000000 -0.000000 -0.000014  0.000000
 19C   1py        0.000000 -0.000082  0.000000 -0.000000  0.000034 -0.000000
 20H   1s         0.000030  0.000000  0.000212 -0.000272  0.000000 -0.000283
 21H   1s         0.000030  0.000000  0.000005 -0.000197 -0.000000 -0.000288
 22H   1s        -0.000002 -0.000000  0.000025 -0.000139 -0.000000 -0.000232
 23H   1s         0.006513  0.000001  0.000127 -0.001251 -0.000004  0.000398
 24H   1s        -0.000019 -0.000015 -0.000000  0.000009  0.000224 -0.000016
 25H   1s         0.000000 -0.000206  0.000000  0.000000  0.000412  0.000010
 26H   1s         0.000000  0.000006  0.000001  0.000007  0.000005  0.000005
 27H   1s        -0.000019  0.000001 -0.000041 -0.000306  0.000011  0.000269
 28H   1s        -0.000093 -0.000016 -0.000001  0.000016  0.000207 -0.000011
 29H   1s         0.000001  0.000000  0.000000 -0.000000  0.000009  0.000000
 30H   1s         0.000000  0.000001  0.000000 -0.000000  0.000011  0.000000
 31H   1s         0.000000  0.000007  0.000000 -0.000000  0.000005  0.000000
 32H   1s         0.000000 -0.000228  0.000000 -0.000000  0.000411  0.000000
                      6         7         8         9        10        11   
                 -10.02171 -10.01876 -10.01666 -10.01251 -10.01239 -10.01198
                   2.00000   2.00000   2.00000   2.00000   2.00000   2.00000
                  --------  --------  --------  --------  --------  --------
  0H   1s         0.000178 -0.000031  0.000019  0.000125 -0.000058  0.000076
  1C   1s        -0.031488  0.000239  0.000021 -0.001033  0.000589 -0.000572
  1C   2s         0.005589 -0.000028 -0.000007 -0.000013  0.000003 -0.000068
  1C   1pz       -0.000605 -0.000011 -0.000001 -0.000061  0.000006  0.000001
  1C   1px        0.002210  0.000018  0.000002  0.000128 -0.000007 -0.000014
  1C   1py       -0.005009  0.000052 -0.000002 -0.000062  0.000076 -0.000042
  2C   1s         0.003887 -0.000039 -0.000002 -0.000627 -0.000073  0.000529
  2C   2s         0.000215 -0.000007  0.000000 -0.000039  0.000008  0.000001
  2C   1pz        0.000114 -0.000002  0.000000  0.000018 -0.000006  0.000004
  2C   1px        0.000099 -0.000001  0.000000  0.000023 -0.000014  0.000018
  2C   1py       -0.000296 -0.000001  0.000000  0.000015  0.000015 -0.000041
  3C   1s        -0.000804  0.000004  0.000000  0.000023  0.000004 -0.000041
  3C   2s         0.000119 -0.000003  0.000000  0.000005  0.000004 -0.000001
  3C   1pz       -0.000081  0.000002 -0.000000 -0.000033  0.000008 -0.000006
  3C   1px        0.000004  0.000001 -0.000000  0.000011 -0.000006  0.000018
  3C   1py       -0.000244 -0.000001  0.000000  0.000025  0.000012 -0.000040
  4O   1s         0.000081  0.000002 -0.000000  0.000021 -0.000011  0.000011
  4O   2s        -0.000614 -0.000014  0.000002 -0.000137  0.000073 -0.000078
  4O   1pz        0.000005  0.000002 -0.000000  0.000014 -0.000010  0.000014
  4O   1px        0.000142  0.000003 -0.000000  0.000027 -0.000018  0.000021
  4O   1py        0.000384  0.000010 -0.000001  0.000117 -0.000053  0.000048
  5O   1s        -0.000008  0.000000  0.000000  0.000002  0.000000 -0.000001
  5O   2s         0.000073  0.000000 -0.000000 -0.000013 -0.000003  0.000010
  5O   1pz        0.000007  0.000000  0.000000  0.000002 -0.000003  0.000006
  5O   1px       -0.000041 -0.000000  0.000000  0.000000  0.000005 -0.000010
  5O   1py       -0.000033 -0.000000  0.000000  0.000009  0.000001 -0.000005
  6C   1s        -0.988519 -0.004195  0.000527 -0.035201  0.025135 -0.026784
  6C   2s        -0.043881  0.000751 -0.000018  0.006378 -0.004516  0.005539
  6C   1pz        0.000090  0.000069 -0.000004  0.001565  0.000547 -0.001597
  6C   1px       -0.000819 -0.000157  0.000025 -0.003758 -0.001589  0.004309
  6C   1py        0.001955 -0.000463  0.000023 -0.004855  0.001513 -0.000373
  7C   1s         0.039470 -0.059032 -0.001405 -0.964113  0.208372  0.011439
  7C   2s         0.011026 -0.011761 -0.000039 -0.041832  0.008944  0.000380
  7C   1pz       -0.001516  0.000826 -0.000020  0.000390 -0.000101  0.000006
  7C   1px        0.003471 -0.002613 -0.000077 -0.000894  0.000238 -0.000034
  7C   1py        0.005040  0.005658  0.000213 -0.000009  0.000111  0.000233
  8C   1s        -0.001373  0.987052  0.008128 -0.048796  0.052241  0.033038
  8C   2s        -0.000804  0.044338  0.000510  0.005123 -0.005894 -0.004249
  8C   1pz        0.000004 -0.000763  0.000042  0.001072  0.001346  0.001333
  8C   1px        0.000041  0.001091  0.000015 -0.003363 -0.003365 -0.003466
  8C   1py       -0.000382  0.001546  0.000039  0.005563 -0.000952  0.000390
  9C   1s         0.003019 -0.055321 -0.002021  0.171809  0.647252  0.621238
  9C   2s         0.000326 -0.011722 -0.000218  0.008633  0.034193  0.024993
  9C   1pz        0.000032 -0.002240 -0.000018 -0.000001 -0.000799  0.000369
  9C   1px       -0.000104  0.005850  0.000106 -0.000014  0.001953 -0.000870
  9C   1py        0.000216 -0.000807  0.000027  0.000711  0.004080 -0.000408
 10C   1s        -0.000037  0.000989  0.000063 -0.089158 -0.614500  0.214560
 10C   2s        -0.000737  0.000965  0.000015 -0.006433 -0.036870  0.010664
 10C   1pz       -0.000082  0.000133 -0.000002 -0.000299 -0.001573 -0.000171
 10C   1px        0.000235 -0.000340 -0.000007  0.000781  0.004144 -0.000078
 10C   1py       -0.000263 -0.000304 -0.000004  0.000294  0.001081  0.007391
 11C   1s         0.037526 -0.003998 -0.000043  0.102507  0.369308 -0.739867
 11C   2s         0.010849 -0.000341 -0.000008  0.005454  0.022196 -0.034367
 11C   1pz        0.002162 -0.000048 -0.000001  0.000013 -0.000396  0.000008
 11C   1px       -0.005876  0.000108  0.000002  0.000010  0.001352 -0.000160
 11C   1py        0.000460  0.000207 -0.000002 -0.000644 -0.004087  0.002073
 12C   1s        -0.000131  0.008666  0.008538 -0.000476  0.000592  0.000464
 12C   2s         0.000067 -0.006878 -0.007036  0.000175 -0.000170 -0.000096
 12C   1pz        0.000002  0.001164 -0.004076 -0.000057  0.000051  0.000049
 12C   1px       -0.000004 -0.002967  0.003765  0.000150 -0.000084 -0.000071
 12C   1py        0.000079 -0.004589  0.000011  0.000112 -0.000145 -0.000057
 13O   1s        -0.000001 -0.000022 -0.000023 -0.000006 -0.000007 -0.000006
 13O   2s         0.000009  0.000244  0.000250  0.000032  0.000049  0.000053
 13O   1pz        0.000007 -0.000023  0.000219  0.000006  0.000000  0.000012
 13O   1px       -0.000001  0.000156 -0.000212  0.000021  0.000024  0.000010
 13O   1py        0.000002  0.000260  0.000037  0.000009  0.000013  0.000013
 14C   1s         0.000620 -0.008386  0.986173 -0.001810  0.001471  0.000926
 14C   2s         0.000035 -0.000241  0.044420  0.000032  0.000014  0.000014
 14C   1pz       -0.000004 -0.000007  0.001548  0.000069  0.000011  0.000032
 14C   1px       -0.000002 -0.000015 -0.001282  0.000069 -0.000033 -0.000018
 14C   1py        0.000020  0.000055 -0.000367  0.000077 -0.000043 -0.000024
 15C   1s         0.000293  0.000007 -0.069618 -0.017544  0.003388 -0.000790
 15C   2s         0.000037  0.000190 -0.012263 -0.001074  0.000209 -0.000036
 15C   1pz        0.000002  0.000141  0.004980 -0.000112  0.000037  0.000011
 15C   1px        0.000015 -0.000006  0.000755 -0.000046  0.000009  0.000003
 15C   1py        0.000020  0.000035  0.003730 -0.000124  0.000030  0.000005
 16C   1s        -0.000012 -0.000343  0.001534  0.002521 -0.000568  0.000055
 16C   2s        -0.000004 -0.000083  0.001115  0.000330 -0.000071  0.000008
 16C   1pz        0.000001  0.000030 -0.000453 -0.000101  0.000021 -0.000003
 16C   1px       -0.000002 -0.000037  0.000306  0.000105 -0.000023  0.000001
 16C   1py       -0.000001 -0.000002 -0.000064 -0.000001  0.000001  0.000001
 17C   1s         0.000000  0.000074 -0.004862 -0.000426  0.000080 -0.000039
 17C   2s         0.000000  0.000009 -0.000437 -0.000050  0.000010 -0.000003
 17C   1pz       -0.000000 -0.000005  0.000189  0.000003 -0.000000  0.000000
 17C   1px        0.000000  0.000006 -0.000174 -0.000017  0.000004 -0.000001
 17C   1py       -0.000000  0.000001 -0.000010 -0.000009  0.000002 -0.000000
 18C   1s         0.000000 -0.000012  0.001270  0.000120 -0.000005  0.000031
 18C   2s         0.000000 -0.000012  0.001016  0.000004  0.000003  0.000004
 18C   1pz       -0.000000  0.000006 -0.000274  0.000007 -0.000002 -0.000001
 18C   1px        0.000000 -0.000002  0.000398 -0.000001  0.000002  0.000002
 18C   1py        0.000000 -0.000003  0.000115  0.000004 -0.000001  0.000000
 19C   1s        -0.000020 -0.000418 -0.058326  0.000903 -0.000462 -0.000249
 19C   2s        -0.000005  0.000005 -0.011830  0.000074 -0.000041 -0.000022
 19C   1pz        0.000001  0.000029 -0.000625  0.000005 -0.000005 -0.000004
 19C   1px       -0.000000 -0.000026 -0.004814  0.000027 -0.000015 -0.000008
 19C   1py       -0.000004  0.000028 -0.004027  0.000013 -0.000006 -0.000003
 20H   1s         0.000151  0.000001 -0.000000  0.000004 -0.000010  0.000017
 21H   1s         0.000144  0.000002  0.000000  0.000032 -0.000013  0.000008
 22H   1s         0.000053  0.000003 -0.000000  0.000020 -0.000008  0.000028
 23H   1s         0.001580  0.000032 -0.000005  0.000334 -0.000166  0.000162
 24H   1s        -0.000493  0.000669 -0.000373  0.008713 -0.001940 -0.000105
 25H   1s         0.000024  0.000635  0.000004 -0.001485 -0.006008 -0.005513
 26H   1s         0.000089 -0.000101 -0.000001  0.000924  0.005699 -0.001965
 27H   1s        -0.000466 -0.000014  0.000001 -0.000863 -0.003533  0.006674
 28H   1s        -0.000058 -0.000413  0.000756  0.000725 -0.000165 -0.000013
 29H   1s         0.000001  0.000014 -0.000110 -0.000040  0.000009 -0.000000
 30H   1s        -0.000000  0.000000 -0.000003  0.000006 -0.000001  0.000000
 31H   1s        -0.000000  0.000002 -0.000101 -0.000000 -0.000000 -0.000000
 32H   1s         0.000000 -0.000015  0.000664 -0.000006  0.000003  0.000001
                     12        13        14        15        16        17   
                 -10.01138 -10.01134 -10.01086 -10.01036 -10.00915 -10.00894
                   2.00000   2.00000   2.00000   2.00000   2.00000   2.00000
                  --------  --------  --------  --------  --------  --------
  0H   1s        -0.000029  0.000073  0.000003 -0.000002 -0.000003 -0.000003
  1C   1s        -0.000022 -0.000954  0.000001 -0.000003 -0.000002 -0.000003
  1C   2s         0.000010  0.000051 -0.000001  0.000001  0.000001  0.000001
  1C   1pz        0.000006 -0.000025 -0.000001  0.000000  0.000001  0.000001
  1C   1px       -0.000005  0.000074  0.000001 -0.000000 -0.000000 -0.000000
  1C   1py        0.000004 -0.000105 -0.000001  0.000000  0.000000  0.000000
  2C   1s         0.000040  0.000782 -0.000002 -0.000001  0.000006  0.000034
  2C   2s         0.000002  0.000015 -0.000000 -0.000000  0.000000  0.000002
  2C   1pz       -0.000001  0.000005  0.000000 -0.000000 -0.000000 -0.000000
  2C   1px       -0.000001  0.000017  0.000000 -0.000000 -0.000000 -0.000000
  2C   1py       -0.000001 -0.000033  0.000000 -0.000000 -0.000000 -0.000000
  3C   1s        -0.000011 -0.000052  0.000001 -0.000001 -0.000001 -0.000001
  3C   2s         0.000004  0.000004 -0.000000  0.000000  0.000000  0.000000
  3C   1pz        0.000003 -0.000011 -0.000000  0.000000  0.000000  0.000000
  3C   1px        0.000001  0.000023 -0.000000  0.000000  0.000000  0.000000
  3C   1py       -0.000005 -0.000031  0.000000 -0.000000 -0.000000 -0.000001
  4O   1s        -0.000006  0.000010  0.000001 -0.000000 -0.000001 -0.000001
  4O   2s         0.000038 -0.000068 -0.000004  0.000002  0.000004  0.000005
  4O   1pz       -0.000004  0.000012  0.000000 -0.000000 -0.000000 -0.000000
  4O   1px       -0.000007  0.000017  0.000001 -0.000000 -0.000001 -0.000001
  4O   1py       -0.000031  0.000044  0.000003 -0.000001 -0.000003 -0.000004
  5O   1s        -0.000000 -0.000000  0.000000 -0.000000 -0.000000 -0.000000
  5O   2s         0.000001  0.000006 -0.000000  0.000000  0.000000  0.000000
  5O   1pz        0.000000  0.000005  0.000000  0.000000 -0.000000  0.000000
  5O   1px       -0.000000 -0.000009  0.000000 -0.000000 -0.000000 -0.000000
  5O   1py       -0.000001 -0.000001  0.000000 -0.000000 -0.000000 -0.000000
  6C   1s         0.000042 -0.024336 -0.000019 -0.000039 -0.000011 -0.000024
  6C   2s        -0.000036  0.004142  0.000005  0.000007  0.000002  0.000004
  6C   1pz       -0.000036 -0.001062  0.000001 -0.000001 -0.000000 -0.000001
  6C   1px        0.000077  0.002894 -0.000001 -0.000003 -0.000002 -0.000003
  6C   1py        0.000057 -0.000672 -0.000003 -0.000005 -0.000001 -0.000003
  7C   1s         0.017357 -0.053908 -0.001090 -0.000166  0.000296  0.000255
  7C   2s         0.000475 -0.002096 -0.000021 -0.000017 -0.000009 -0.000013
  7C   1pz       -0.000075 -0.000071  0.000005  0.000003 -0.000001 -0.000001
  7C   1px        0.000140  0.000198 -0.000013  0.000006  0.000009  0.000011
  7C   1py       -0.000109 -0.000042  0.000010 -0.000017 -0.000013 -0.000020
  8C   1s         0.000166 -0.026600 -0.000028 -0.000950 -0.000106 -0.000461
  8C   2s        -0.000127  0.002655  0.000014  0.000016 -0.000019 -0.000003
  8C   1pz       -0.000017 -0.000800 -0.000003  0.000046  0.000008  0.000027
  8C   1px        0.000025  0.002061  0.000003 -0.000030 -0.000005 -0.000017
  8C   1py       -0.000136  0.000178  0.000007 -0.000026  0.000007 -0.000014
  9C   1s        -0.006885 -0.379222 -0.000030 -0.000341 -0.000031 -0.000111
  9C   2s        -0.000168 -0.009808 -0.000003 -0.000000  0.000004  0.000005
  9C   1pz       -0.000019 -0.001034  0.000000 -0.000003 -0.000001 -0.000002
  9C   1px        0.000020  0.002480  0.000002 -0.000011 -0.000004 -0.000008
  9C   1py        0.000055  0.003361 -0.000000  0.000003  0.000000  0.000001
 10C   1s        -0.011860 -0.741326 -0.000084 -0.000155  0.000003 -0.000026
 10C   2s        -0.000390 -0.024437 -0.000003 -0.000003  0.000000  0.000000
 10C   1pz        0.000009  0.000610  0.000000  0.000001  0.000000  0.000001
 10C   1px       -0.000023 -0.001686 -0.000001 -0.000001  0.000000 -0.000000
 10C   1py        0.000008  0.001012  0.000000 -0.000001 -0.000000 -0.000001
 11C   1s        -0.007984 -0.534352 -0.000071 -0.000087  0.000003 -0.000013
 11C   2s        -0.000241 -0.016647 -0.000002 -0.000002  0.000000 -0.000000
 11C   1pz       -0.000010 -0.000646 -0.000000  0.000000  0.000000  0.000000
 11C   1px        0.000034  0.001989  0.000000  0.000000  0.000000  0.000000
 11C   1py       -0.000056 -0.003646 -0.000001 -0.000001  0.000000  0.000000
 12C   1s        -0.000612 -0.000482 -0.000061 -0.000733  0.000101 -0.000418
 12C   2s         0.000264  0.000188  0.000047  0.000203 -0.000026  0.000182
 12C   1pz        0.000160 -0.000064  0.000035  0.000151  0.000021  0.000109
 12C   1px       -0.000228  0.000131 -0.000021 -0.000138  0.000042 -0.000118
 12C   1py       -0.000070  0.000105  0.000006 -0.000038  0.000056 -0.000022
 13O   1s        -0.000004  0.000003  0.000003  0.000010 -0.000002  0.000000
 13O   2s         0.000016 -0.000036 -0.000016 -0.000082  0.000029 -0.000013
 13O   1pz       -0.000001 -0.000011 -0.000004 -0.000010  0.000002 -0.000003
 13O   1px       -0.000015  0.000001  0.000013  0.000035 -0.000001 -0.000003
 13O   1py       -0.000000 -0.000012  0.000002 -0.000006  0.000017 -0.000006
 14C   1s        -0.068493  0.000449 -0.005117 -0.059256  0.004198 -0.019838
 14C   2s         0.005740 -0.000093  0.000209  0.006514 -0.000610  0.001635
 14C   1pz        0.004963 -0.000097 -0.000389 -0.000152  0.000549  0.000452
 14C   1px        0.000696  0.000005 -0.000819 -0.004546  0.000935 -0.000856
 14C   1py        0.003616 -0.000039 -0.000856 -0.003531  0.001045 -0.000359
 15C   1s        -0.969353  0.014575  0.104042 -0.039189 -0.103718 -0.114781
 15C   2s        -0.043990  0.000649  0.002590 -0.001313  0.001896  0.001172
 15C   1pz       -0.001091  0.000004 -0.000874 -0.000140  0.003221  0.002877
 15C   1px        0.001767 -0.000029  0.000805 -0.000012 -0.002841 -0.002847
 15C   1py        0.000709 -0.000020  0.000041 -0.000100 -0.000076 -0.000296
 16C   1s         0.170829 -0.002546  0.178999 -0.018342 -0.700500 -0.655005
 16C   2s         0.017340 -0.000256  0.015794 -0.001886 -0.029911 -0.025677
 16C   1pz       -0.004791  0.000070 -0.000334 -0.000251  0.000353  0.000082
 16C   1px        0.003723 -0.000052 -0.005032  0.000985  0.000454 -0.000749
 16C   1py       -0.000252  0.000004 -0.003911  0.000564  0.000562 -0.000495
 17C   1s        -0.073669  0.001230 -0.932504  0.175346 -0.005887 -0.274812
 17C   2s        -0.005372  0.000087 -0.045229  0.005367  0.000090 -0.000107
 17C   1pz        0.000149 -0.000003  0.002114  0.001148  0.003674 -0.002812
 17C   1px       -0.000998  0.000015 -0.001733  0.000368  0.003796  0.002656
 17C   1py       -0.000633  0.000009  0.000111  0.000995  0.005130  0.000159
 18C   1s         0.020568 -0.000381  0.230263  0.242380  0.666734 -0.651595
 18C   2s         0.001468 -0.000030  0.020122  0.017949  0.027705 -0.024750
 18C   1pz        0.000556 -0.000007  0.004173 -0.005133  0.000895  0.000394
 18C   1px        0.000116 -0.000004  0.001476  0.004298 -0.000043  0.000279
 18C   1py        0.000439 -0.000007  0.003744 -0.000103  0.000526  0.000466
 19C   1s         0.032692 -0.000109 -0.121357 -0.941308  0.189105 -0.200750
 19C   2s         0.001521  0.000003 -0.007812 -0.043432  0.002138 -0.002611
 19C   1pz       -0.000095  0.000004 -0.001337 -0.002142 -0.002786  0.002947
 19C   1px        0.000363  0.000001  0.001037  0.001219  0.002856 -0.002683
 19C   1py        0.000213 -0.000001 -0.000094 -0.000509  0.000337 -0.000108
 20H   1s         0.000000  0.000012 -0.000000  0.000000 -0.000000 -0.000000
 21H   1s        -0.000001  0.000003  0.000000 -0.000000 -0.000000 -0.000000
 22H   1s         0.000000  0.000030  0.000000  0.000000 -0.000000 -0.000000
 23H   1s        -0.000096  0.000145  0.000009 -0.000004 -0.000009 -0.000012
 24H   1s         0.000391  0.000614 -0.000043  0.000041  0.000043  0.000056
 25H   1s         0.000061  0.003369  0.000001  0.000005 -0.000000  0.000002
 26H   1s         0.000104  0.006574  0.000001  0.000002 -0.000000  0.000000
 27H   1s         0.000069  0.004765  0.000001  0.000001 -0.000000  0.000000
 28H   1s         0.008793 -0.000097 -0.000828  0.000405  0.000765  0.001019
 29H   1s        -0.001712  0.000025 -0.001766  0.000234  0.006252  0.005948
 30H   1s         0.000789 -0.000013  0.008508 -0.001452  0.000039  0.002314
 31H   1s        -0.000140  0.000003 -0.002273 -0.002303 -0.005934  0.005895
 32H   1s        -0.000208  0.000001  0.001202  0.008547 -0.001546  0.001792
                     18        19        20        21        22        23   
                 -10.00888  -1.00428  -0.97304  -0.93253  -0.81448  -0.80550
                   2.00000   2.00000   2.00000   2.00000   2.00000   2.00000
                  --------  --------  --------  --------  --------  --------
  0H   1s        -0.000028  0.006595 -0.000081  0.000594  0.028823 -0.009251
  1C   1s         0.018386 -0.021217  0.000181 -0.003453 -0.053208  0.017007
  1C   2s        -0.006293  0.052381 -0.000478  0.011329  0.143790 -0.046112
  1C   1pz        0.004922  0.018554  0.000038 -0.000831 -0.005709  0.001970
  1C   1px        0.000418  0.013186 -0.000063  0.002041  0.013010 -0.004077
  1C   1py       -0.002763  0.010920  0.000275  0.012208 -0.031352  0.009042
  2C   1s         0.990188 -0.004907  0.000036 -0.004664 -0.023333  0.007915
  2C   2s         0.045357  0.011718 -0.000087  0.011124  0.060911 -0.020768
  2C   1pz       -0.000438  0.005519 -0.000023  0.004395  0.013021 -0.004284
  2C   1px       -0.000059  0.001763 -0.000007  0.001956  0.003461 -0.001138
  2C   1py        0.000297 -0.000333  0.000038  0.001802 -0.011688  0.003753
  3C   1s         0.000543 -0.128859 -0.000174 -0.049068 -0.005171  0.001852
  3C   2s        -0.000001  0.311132  0.000423  0.112161  0.013987 -0.005071
  3C   1pz        0.000123  0.055265  0.000081 -0.079410 -0.021890  0.007018
  3C   1px       -0.000003  0.040039  0.000078  0.000937 -0.012706  0.004147
  3C   1py       -0.000100  0.044979  0.000203  0.195468 -0.017980  0.006120
  4O   1s         0.000006 -0.167443 -0.000161  0.151891  0.014202 -0.004221
  4O   2s        -0.000030  0.591545  0.000577 -0.551470 -0.054430  0.016225
  4O   1pz        0.000046 -0.109816 -0.000098  0.072577  0.001472 -0.000219
  4O   1px        0.000034 -0.061155 -0.000054  0.050776  0.002205 -0.000578
  4O   1py       -0.000037 -0.023127  0.000019  0.067226 -0.000177  0.000045
  5O   1s        -0.000008 -0.127107 -0.000263 -0.173965  0.006804 -0.002322
  5O   2s         0.000092  0.434167  0.000907  0.608441 -0.024427  0.008383
  5O   1pz        0.000024  0.018477  0.000035  0.008160 -0.004370  0.001457
  5O   1px       -0.000025 -0.019276 -0.000039 -0.028913 -0.001027  0.000350
  5O   1py       -0.000017 -0.128616 -0.000247 -0.146252  0.003457 -0.001120
  6C   1s         0.003454 -0.006642  0.001305  0.003557 -0.113879  0.033132
  6C   2s         0.000099  0.014932 -0.003226 -0.008070  0.291014 -0.084920
  6C   1pz        0.000038  0.002961 -0.000182 -0.002506 -0.001580  0.001470
  6C   1px       -0.000014 -0.000158  0.000300 -0.000735  0.015831 -0.006607
  6C   1py       -0.000027  0.005537  0.001406 -0.000684 -0.039238  0.008490
  7C   1s        -0.000723 -0.001627  0.004958  0.001520 -0.103222  0.022270
  7C   2s        -0.000051  0.003660 -0.012276 -0.003428  0.261757 -0.056699
  7C   1pz       -0.000047 -0.000379  0.000684  0.000089 -0.019082  0.007622
  7C   1px       -0.000024  0.000854 -0.001950 -0.000771  0.052934 -0.016309
  7C   1py       -0.000006  0.001540  0.005986 -0.001052  0.001473 -0.008069
  8C   1s         0.000015 -0.000421  0.023377  0.000541 -0.096519  0.016962
  8C   2s         0.000006  0.001019 -0.056482 -0.001328  0.245609 -0.042867
  8C   1pz        0.000009  0.000057 -0.001735 -0.000057 -0.010033  0.008766
  8C   1px       -0.000001 -0.000052  0.011033 -0.000016  0.022492 -0.014339
  8C   1py        0.000003  0.000439  0.024724 -0.000568  0.046481 -0.014055
  9C   1s         0.000109 -0.000252  0.008380  0.000366 -0.088116  0.024026
  9C   2s         0.000001  0.000581 -0.019597 -0.000867  0.222517 -0.060611
  9C   1pz       -0.000000  0.000027 -0.002374 -0.000049  0.009021 -0.000699
  9C   1px       -0.000001 -0.000081  0.008950  0.000114 -0.023977  0.003541
  9C   1py       -0.000003  0.000215  0.002846 -0.000293  0.048612 -0.013825
 10C   1s         0.000366 -0.000479  0.001713  0.000558 -0.088223  0.026711
 10C   2s         0.000004  0.001162 -0.004321 -0.001320  0.222279 -0.067674
 10C   1pz       -0.000006  0.000141 -0.000630 -0.000198  0.019107 -0.005426
 10C   1px        0.000004 -0.000342  0.001543  0.000353 -0.051243  0.014744
 10C   1py       -0.000007  0.000456  0.001368 -0.000352  0.008238 -0.003559
 11C   1s         0.000762 -0.002377  0.000890  0.001610 -0.097250  0.029981
 11C   2s         0.000001  0.005566 -0.002071 -0.003933  0.245954 -0.076239
 11C   1pz        0.000019  0.001680 -0.000164 -0.001288  0.015980 -0.004591
 11C   1px       -0.000028 -0.001830  0.000371  0.001034 -0.038760  0.011159
 11C   1py       -0.000022  0.001226  0.000740 -0.000219 -0.038417  0.011270
 12C   1s         0.000001 -0.000141  0.127554 -0.000054 -0.016322 -0.012178
 12C   2s        -0.000001  0.000344 -0.304826  0.000114  0.047529  0.035340
 12C   1pz       -0.000001 -0.000063  0.084578 -0.000094  0.017944  0.041185
 12C   1px       -0.000000  0.000053 -0.024983 -0.000029  0.005746 -0.033970
 12C   1py       -0.000001 -0.000014  0.130110 -0.000284  0.053745  0.011911
 13O   1s        -0.000000 -0.000152  0.211164 -0.000240  0.027199  0.018681
 13O   2s        -0.000000  0.000524 -0.735607  0.000848 -0.100591 -0.069351
 13O   1pz       -0.000000  0.000077 -0.104273  0.000113 -0.009275 -0.000582
 13O   1px        0.000000 -0.000020  0.030650 -0.000040  0.005204 -0.004922
 13O   1py        0.000000  0.000127 -0.160529  0.000157 -0.009306 -0.011131
 14C   1s         0.000000 -0.000033  0.023271  0.000009 -0.032195 -0.104933
 14C   2s        -0.000000  0.000076 -0.056192 -0.000020  0.082154  0.267731
 14C   1pz       -0.000000 -0.000021  0.020957 -0.000016  0.008602  0.044016
 14C   1px        0.000000  0.000023 -0.016679 -0.000002 -0.003449 -0.039341
 14C   1py       -0.000000  0.000010  0.004866 -0.000029  0.005372 -0.003369
 15C   1s         0.000021 -0.000032  0.004837  0.000044 -0.029606 -0.102359
 15C   2s        -0.000000  0.000151 -0.012005 -0.000175  0.074877  0.259948
 15C   1pz       -0.000001 -0.000012  0.005210  0.000012 -0.007171 -0.006931
 15C   1px       -0.000000  0.000068  0.000029 -0.000072 -0.008326 -0.045991
 15C   1py       -0.000000  0.000058  0.003501 -0.000070 -0.009247 -0.038976
 16C   1s         0.000024 -0.000005  0.001239  0.000009 -0.023486 -0.099978
 16C   2s         0.000001  0.000010 -0.003023 -0.000021  0.059243  0.252716
 16C   1pz        0.000000 -0.000005  0.001233  0.000008 -0.012795 -0.049302
 16C   1px        0.000000  0.000003 -0.000628 -0.000006  0.000789 -0.004824
 16C   1py       -0.000000  0.000001  0.000321 -0.000003 -0.007282 -0.034398
 17C   1s         0.000009 -0.000001  0.000853  0.000003 -0.021495 -0.099146
 17C   2s         0.000000  0.000004 -0.001983 -0.000007  0.054142  0.251040
 17C   1pz        0.000000 -0.000001  0.000653  0.000001 -0.009564 -0.043627
 17C   1px       -0.000000  0.000002 -0.000501 -0.000003  0.009619  0.041131
 17C   1py       -0.000000  0.000001  0.000045 -0.000002  0.000975  0.002343
 18C   1s         0.000018 -0.000002  0.001681  0.000001 -0.021578 -0.099674
 18C   2s         0.000001  0.000004 -0.004259 -0.000002  0.054251  0.251986
 18C   1pz       -0.000000 -0.000001  0.001242 -0.000001  0.000286  0.003492
 18C   1px       -0.000000  0.000002 -0.001685 -0.000000  0.010918  0.047507
 18C   1py       -0.000000  0.000001 -0.000470 -0.000001  0.008295  0.037368
 19C   1s         0.000004 -0.000008  0.008384 -0.000003 -0.023746 -0.101838
 19C   2s         0.000000  0.000020 -0.019573  0.000005  0.060208  0.258173
 19C   1pz       -0.000000 -0.000001  0.002294 -0.000005  0.010693  0.047333
 19C   1px        0.000000  0.000009 -0.008711  0.000004  0.003596  0.007320
 19C   1py        0.000000  0.000006 -0.003641 -0.000003  0.010402  0.036851
 20H   1s        -0.009167  0.003794 -0.000004  0.005499  0.010217 -0.003589
 21H   1s        -0.009165  0.001181 -0.000022  0.001120  0.012679 -0.004339
 22H   1s        -0.009176  0.002227 -0.000017  0.002755  0.013430 -0.004632
 23H   1s        -0.000128  0.098389  0.000025 -0.113042 -0.001869  0.000679
 24H   1s         0.000010  0.000521 -0.002343 -0.000558  0.048414 -0.005955
 25H   1s        -0.000001  0.000062 -0.007152 -0.000097  0.037252 -0.011270
 26H   1s        -0.000006  0.000114 -0.000437 -0.000167  0.037787 -0.011874
 27H   1s         0.000171  0.001652 -0.000232 -0.000374  0.043845 -0.014072
[...]
  0-1A  -> 28-1A    7.397392   59664.0   167.6   0.001344412   0.00742   0.05588  -0.06126   0.02331
  0-1A  -> 29-1A    7.431850   59941.9   166.8   0.010295622   0.05655  -0.13640  -0.12316   0.15090
  0-1A  -> 30-1A    7.446762   60062.2   166.5   0.010388380   0.05694  -0.00689   0.20385   0.12385

----------------------------------------------------------------------------------------------------
                     ABSORPTION SPECTRUM VIA TRANSITION VELOCITY DIPOLE MOMENTS    
----------------------------------------------------------------------------------------------------
     Transition      Energy     Energy  Wavelength fosc(P2)      P2        PX        PY        PZ   
                      (eV)      (cm-1)    (nm)                 (au**2)    (au)      (au)      (au)  
----------------------------------------------------------------------------------------------------
  0-1A  ->  1-1A    3.134004   25277.4   395.6   0.000164388   0.00003  -0.00060   0.00446   0.00286
  0-1A  ->  2-1A    4.251801   34293.1   291.6   0.000056315   0.00001  -0.00028  -0.00173  -0.00318
  0-1A  ->  3-1A    4.833107   38981.6   256.5   0.000600855   0.00016   0.00427   0.01174   0.00199
  0-1A  ->  4-1A    5.136489   41428.6   241.4   0.000312708   0.00009  -0.00480  -0.00466   0.00661
  0-1A  ->  5-1A    5.243562   42292.2   236.5   0.001676705   0.00048  -0.00489   0.00858  -0.01968
  0-1A  ->  6-1A    5.356930   43206.6   231.4   0.000661758   0.00020  -0.00028  -0.01144   0.00802
  0-1A  ->  7-1A    5.393390   43500.6   229.9   0.000372688   0.00011  -0.00038  -0.00860  -0.00606
  0-1A  ->  8-1A    5.434110   43829.1   228.2   0.010970431   0.00329   0.02129   0.04931  -0.02005
  0-1A  ->  9-1A    5.525891   44569.3   224.4   0.017808834   0.00542   0.04304   0.04702  -0.03689
  0-1A  -> 10-1A    5.555171   44805.5   223.2   0.002710431   0.00083  -0.01751  -0.00584   0.02212
  0-1A  -> 11-1A    5.585627   45051.1   222.0   0.005026720   0.00155   0.02305  -0.00551  -0.03140
  0-1A  -> 12-1A    5.609453   45243.3   221.0   0.019336253   0.00598  -0.04717  -0.05225   0.03200
  0-1A  -> 13-1A    5.867507   47324.6   211.3   0.006383560   0.00206  -0.01069   0.03275   0.02963
  0-1A  -> 14-1A    5.898850   47577.4   210.2   0.000116175   0.00004  -0.00141   0.00445   0.00399
  0-1A  -> 15-1A    6.273816   50601.7   197.6   0.000278221   0.00010   0.00742  -0.00616   0.00178
  0-1A  -> 16-1A    6.418740   51770.6   193.2   0.000040816   0.00001  -0.00346  -0.00082   0.00134
  0-1A  -> 17-1A    6.454608   52059.9   192.1   0.000074621   0.00003  -0.00029   0.00043  -0.00513
  0-1A  -> 18-1A    6.500275   52428.3   190.7   0.000412519   0.00015  -0.00665  -0.00749   0.00689
  0-1A  -> 19-1A    6.536057   52716.9   189.7   0.000005084   0.00000  -0.00019  -0.00041  -0.00128
  0-1A  -> 20-1A    6.559819   52908.5   189.0   0.000652974   0.00024   0.00505   0.01290  -0.00666
  0-1A  -> 21-1A    6.772095   54620.6   183.1   0.001132612   0.00042  -0.01075  -0.01264   0.01215
  0-1A  -> 22-1A    6.792175   54782.6   182.5   0.000003626   0.00000   0.00113  -0.00003   0.00027
  0-1A  -> 23-1A    6.949855   56054.4   178.4   0.006463974   0.00248  -0.02887  -0.02902   0.02829
  0-1A  -> 24-1A    6.978929   56288.9   177.7   0.023802438   0.00916  -0.05331  -0.05748   0.05487
  0-1A  -> 25-1A    7.024366   56655.3   176.5   0.032056191   0.01241  -0.06294  -0.06559   0.06441
  0-1A  -> 26-1A    7.197280   58050.0   172.3   0.000972836   0.00039  -0.00899   0.01115   0.01344
  0-1A  -> 27-1A    7.216021   58201.1   171.8   0.002500056   0.00099  -0.01736  -0.01618   0.02077
  0-1A  -> 28-1A    7.397392   59664.0   167.6   0.000515645   0.00021  -0.00651   0.01291  -0.00114
  0-1A  -> 29-1A    7.431850   59941.9   166.8   0.004917931   0.00201   0.03811   0.02354   0.00283
  0-1A  -> 30-1A    7.446762   60062.2   166.5   0.000960861   0.00039  -0.00720  -0.01770  -0.00542

------------------------------------------------------------------------------------------
                     CD SPECTRUM VIA TRANSITION ELECTRIC DIPOLE MOMENTS    
------------------------------------------------------------------------------------------
     Transition      Energy     Energy  Wavelength    R        MX        MY        MZ   
                      (eV)      (cm-1)    (nm)   (1e40*cgs)   (au)      (au)      (au)  
------------------------------------------------------------------------------------------
  0-1A  ->  1-1A    3.134004   25277.4   395.6  -17.36653  -0.06724   0.33378   0.21512
  0-1A  ->  2-1A    4.251801   34293.1   291.6   -0.47699   0.00946   0.01568   0.01221
  0-1A  ->  3-1A    4.833107   38981.6   256.5   33.24348   0.10981   0.48480  -0.06451
  0-1A  ->  4-1A    5.136489   41428.6   241.4    0.94569  -0.02550  -0.00670  -0.01847
  0-1A  ->  5-1A    5.243562   42292.2   236.5   -2.72725   0.12675  -0.01837   0.01516
  0-1A  ->  6-1A    5.356930   43206.6   231.4   -0.71724  -0.09497  -0.02411   0.01492
  0-1A  ->  7-1A    5.393390   43500.6   229.9    1.49303  -0.03961   0.03527   0.00187
  0-1A  ->  8-1A    5.434110   43829.1   228.2   37.00401   0.18940  -0.02544   0.03236
  0-1A  ->  9-1A    5.525891   44569.3   224.4    7.21666   0.14541  -0.01186   0.08336
  0-1A  -> 10-1A    5.555171   44805.5   223.2    3.75170  -0.01039  -0.03163   0.02132
  0-1A  -> 11-1A    5.585627   45051.1   222.0  -17.02591  -0.03477   0.05858   0.00396
  0-1A  -> 12-1A    5.609453   45243.3   221.0    3.23984  -0.15391   0.02769  -0.13809
  0-1A  -> 13-1A    5.867507   47324.6   211.3  -12.69980  -0.06498   0.05008  -0.01487
  0-1A  -> 14-1A    5.898850   47577.4   210.2   -1.79778  -0.03847   0.01877  -0.00870
  0-1A  -> 15-1A    6.273816   50601.7   197.6    0.29092   0.03463   0.00415   0.01371
  0-1A  -> 16-1A    6.418740   51770.6   193.2   -1.90754   0.02233  -0.00880   0.01035
  0-1A  -> 17-1A    6.454608   52059.9   192.1    1.15635  -0.00557   0.00834   0.01204
  0-1A  -> 18-1A    6.500275   52428.3   190.7    0.32016  -0.00577   0.00909  -0.00752
  0-1A  -> 19-1A    6.536057   52716.9   189.7   17.29988  -0.02308   0.23445   0.15779
  0-1A  -> 20-1A    6.559819   52908.5   189.0    1.39994   0.00137   0.02280   0.01701
  0-1A  -> 21-1A    6.772095   54620.6   183.1   -0.58567  -0.01053   0.02962  -0.00999
  0-1A  -> 22-1A    6.792175   54782.6   182.5   -0.01012   0.00938  -0.00272  -0.00045
  0-1A  -> 23-1A    6.949855   56054.4   178.4    9.45890  -0.13736   0.00414  -0.06902
  0-1A  -> 24-1A    6.978929   56288.9   177.7   21.18886  -0.25019   0.04347  -0.12326
  0-1A  -> 25-1A    7.024366   56655.3   176.5   31.30516  -0.21672   0.02295  -0.14390
  0-1A  -> 26-1A    7.197280   58050.0   172.3   -4.08286  -0.01620  -0.01693  -0.03778
  0-1A  -> 27-1A    7.216021   58201.1   171.8   -0.90922  -0.03739  -0.00601  -0.05020
  0-1A  -> 28-1A    7.397392   59664.0   167.6   -2.29327   0.09338  -0.00505  -0.02845
  0-1A  -> 29-1A    7.431850   59941.9   166.8  -30.98437  -0.14720  -0.09883   0.22181
  0-1A  -> 30-1A    7.446762   60062.2   166.5   -3.72710  -0.01686   0.05016  -0.01966

------------------------------------------------------------------------------------------
                     CD SPECTRUM VIA TRANSITION VELOCITY DIPOLE MOMENTS    
------------------------------------------------------------------------------------------
     Transition      Energy     Energy  Wavelength    R        MX        MY        MZ   
                      (eV)      (cm-1)    (nm)   (1e40*cgs)   (au)      (au)      (au)  
------------------------------------------------------------------------------------------
  0-1A  ->  1-1A    3.134004   25277.4   395.6    8.77212  -0.06724   0.33378   0.21512
  0-1A  ->  2-1A    4.251801   34293.1   291.6   -0.20713   0.00946   0.01568   0.01221
  0-1A  ->  3-1A    4.833107   38981.6   256.5   16.01444   0.10981   0.48480  -0.06451
  0-1A  ->  4-1A    5.136489   41428.6   241.4    0.07890  -0.02550  -0.00670  -0.01847
  0-1A  ->  5-1A    5.243562   42292.2   236.5   -2.63109   0.12675  -0.01837   0.01516
  0-1A  ->  6-1A    5.356930   43206.6   231.4    1.01209  -0.09497  -0.02411   0.01492
  0-1A  ->  7-1A    5.393390   43500.6   229.9   -0.71228  -0.03961   0.03527   0.00187
  0-1A  ->  8-1A    5.434110   43829.1   228.2    5.02659   0.18940  -0.02544   0.03236
  0-1A  ->  9-1A    5.525891   44569.3   224.4    6.09740   0.14541  -0.01186   0.08336
  0-1A  -> 10-1A    5.555171   44805.5   223.2    1.93624  -0.01039  -0.03163   0.02132
  0-1A  -> 11-1A    5.585627   45051.1   222.0   -2.86795  -0.03477   0.05858   0.00396
  0-1A  -> 12-1A    5.609453   45243.3   221.0    3.18874  -0.15391   0.02769  -0.13809
  0-1A  -> 13-1A    5.867507   47324.6   211.3    4.14238  -0.06498   0.05008  -0.01487
  0-1A  -> 14-1A    5.898850   47577.4   210.2    0.22442  -0.03847   0.01877  -0.00870
  0-1A  -> 15-1A    6.273816   50601.7   197.6    0.52343   0.03463   0.00415   0.01371
  0-1A  -> 16-1A    6.418740   51770.6   193.2   -0.11221   0.02233  -0.00880   0.01035
  0-1A  -> 17-1A    6.454608   52059.9   192.1   -0.11242  -0.00557   0.00834   0.01204
  0-1A  -> 18-1A    6.500275   52428.3   190.7   -0.16068  -0.00577   0.00909  -0.00752
  0-1A  -> 19-1A    6.536057   52716.9   189.7   -0.57514  -0.02308   0.23445   0.15779
  0-1A  -> 20-1A    6.559819   52908.5   189.0    0.36719   0.00137   0.02280   0.01701
  0-1A  -> 21-1A    6.772095   54620.6   183.1   -0.72438  -0.01053   0.02962  -0.00999
  0-1A  -> 22-1A    6.792175   54782.6   182.5    0.01997   0.00938  -0.00272  -0.00045
  0-1A  -> 23-1A    6.949855   56054.4   178.4    3.49459  -0.13736   0.00414  -0.06902
  0-1A  -> 24-1A    6.978929   56288.9   177.7    7.49328  -0.25019   0.04347  -0.12326
  0-1A  -> 25-1A    7.024366   56655.3   176.5    5.23634  -0.21672   0.02295  -0.14390
  0-1A  -> 26-1A    7.197280   58050.0   172.3   -0.98216  -0.01620  -0.01693  -0.03778
  0-1A  -> 27-1A    7.216021   58201.1   171.8   -0.52693  -0.03739  -0.00601  -0.05020
  0-1A  -> 28-1A    7.397392   59664.0   167.6   -1.11022   0.09338  -0.00505  -0.02845
  0-1A  -> 29-1A    7.431850   59941.9   166.8  -12.61840  -0.14720  -0.09883   0.22181
  0-1A  -> 30-1A    7.446762   60062.2   166.5   -1.13664  -0.01686   0.05016  -0.01966

Total run time:       69.400 sec

           *** ORCA-CIS/TD-DFT FINISHED WITHOUT ERROR ***
-----------------------
CIS/TD-DFT TOTAL ENERGY
-----------------------

    E(SCF)  =   -832.622820188 Eh
    DE(CIS) =      0.115172524 Eh (Root  1)
    ----------------------------- ---------
    E(tot)  =   -832.507647664 Eh


Maximum memory used throughout the entire CIS-calculation: 94.7 MB
=> NOW LEAVING ORCA_CIS

-------------------------   --------------------
FINAL SINGLE POINT ENERGY      -832.507647664446
-------------------------   --------------------


------------------------------------------------------------------------------
                              ORCA PROPERTY CALCULATIONS
------------------------------------------------------------------------------

GBWName                                 ... Dexketoprofen\Dexketoprofen_B3LYP_STO-3G\Dexketoprofen_B3LYP_STO-3G.orcainp.gbw
Number of atoms                         ...     33
Number of basis functions               ...    109
Max core memory                         ...   1024 MB

Electric properties:
Dipole moment                           ... YES
Quadrupole moment                       ...  NO
Static polarizability (Dipole/Dipole)   ...  NO
Static polarizability (Dipole/Quad.)    ...  NO
Static polarizability (Quad./Quad.)     ...  NO
Static polarizability (Velocity)        ...  NO

Atomic electric properties:
Dipole moment                           ...  NO
Quadrupole moment                       ...  NO
Static polarizability                   ...  NO

Choice of electric origin               ... Center of mass
Position of electric origin             ...     3.607584    -5.486296     1.509551

General magnetic properties:
Magnetizability                         ...  NO

EPR properties:
g-Tensor (aka g-matrix)                 ...  NO
Zero-Field splitting spin-orbit         ...  NO
Zero-field splitting spin-spin          ...  NO
Hyperfine couplings                     ...  NO (   0 nuclei)
Quadrupole couplings                    ...  NO (   0 nuclei)
Contact density                         ...  NO (   0 nuclei)

NMR properties:
Chemical shifts                         ...  NO (   0 nuclei)
Spin-rotation constants                 ...  NO (   0 nuclei)
Spin-spin couplings                     ...  NO (   0 nuclei,    0 pairs)

Choice of magnetic origin               ... GIAO
Position of magnetic origin             ...     0.000000     0.000000     0.000000

Properties with geometric perturbations:
SCF Hessian                             ...  NO
IR spectrum                             ...  NO
VCD spectrum                            ...  NO
X-ray spectroscopy properties:
SCF XES/XAS/RIXS spectra                ...  NO


-------------
DIPOLE MOMENT
-------------

Method             : SCF
Type of density    : Electron Density
Multiplicity       :   1
Irrep              :   0
Energy             :  -832.6228201883535576 Eh
Relativity type    : 
Basis              : AO
                                X                 Y                 Z
Electronic contribution:      3.064499105      -4.203418654       2.042131392
Nuclear contribution   :     -3.655956711       3.641716706      -1.877629193
                        -----------------------------------------
Total Dipole Moment    :     -0.591457607      -0.561701948       0.164502199
                        -----------------------------------------
Magnitude (a.u.)       :      0.832101047
Magnitude (Debye)      :      2.115032776



--------------------
Rotational spectrum 
--------------------
 
Rotational constants in cm-1:             0.019854             0.006974             0.005761 
Rotational constants in MHz :           595.216509           209.071458           172.704977 

Dipole components along the rotational axes: 
x,y,z [a.u.] :     0.789750     0.161571     0.206354 
x,y,z [Debye]:     2.007385     0.410680     0.524510 

 

Dipole moment calculation done in   0.0 sec 

Maximum memory used throughout the entire PROP-calculation: 8.0 MB

--------------------------------
SUGGESTED CITATIONS FOR THIS RUN
--------------------------------

Below you find a list of papers that are relevant to this ORCA run
We neither can nor want to force you to cite these papers, but we appreciate if you do
You receive ORCA, which is the product of decades of hard work by many enthusiastic individuals, for free
The only thing we kindly ask in return is that you cite our papers,
We deeply appreciate it, if you show your appreciation for ORCA by not just citing the generic ORCA reference.

Please note that relegating all ORCA citations to the supporting information does *not* help us.
SI sections are not indexed - citations you put there will not count into any citation statistics
But we need these citations in order to attract the funding resources that allow us to do what we are doing

Therefore, if you are a happy ORCA user, please consider citing a few of the papers listed below in the main body of your paper

In addition to the list printed below, the program has created the file Dexketoprofen\Dexketoprofen_B3LYP_STO-3G\Dexketoprofen_B3LYP_STO-3G.orcainp.bibtex that contains the list in bibtex format
You can import this file easily into all common literature databanks and citation aid programs


List of essential papers. We consider these as the minimum necessary citations

  1. Neese,F.
     Software update: the ORCA program system, version 5.0
     WIRES Comput. Molec. Sci., 2022 12(1)e1606
     doi.org/10.1002/wcms.1606

List of papers to cite with high priority. The work reported in these papers was absolutely
necessary for this run to complete.
Our perspective: the developers of density functionals and basis sets usually get cited in chemistry papers
Good! But without the algorithms to do something with them, the functionals or basis sets would not do anything.
Hence, in our opinion, the algorithm design and method developments papers are equally worthy of getting cited

  1. Neese,F.; Olbrich,G.
     Efficient use of the resolution of the identity approximation in time-dependent density functional calculations with hybrid density functionals
     Chem. Phys. Lett., 2002 362 170-178
     doi.org/10.1016/s0009-2614(02)01053-9
  2. Neese,F.
     An improvement of the resolution of the identity approximation for the formation of the Coulomb matrix
     J. Comp. Chem., 2003 24(14)1740-1747
     doi.org/10.1002/jcc.10318
  3. Neese,F.; Wennmohs,F.; Hansen,A.; Becker,U.
     Efficient, approximate and parallel Hartree-Fock and hybrid DFT calculations. A 'chain-of-spheres' algorithm for the Hartree-Fock exchange
     Chem. Phys., 2009 356(1-3)98-109
     doi.org/10.1016/j.chemphys.2008.10.036
  4. Garcia-Rates,M.; Neese,F.
     Effect of the Solute Cavity on the Solvation Energy and its Derivatives within the Framework of the Gaussian Charge Scheme
     J. Comput. Chem., 2020 41 922-939
     doi.org/10.1002/jcc.26139
  5. Helmich-Paris,B.; de Souza,B.; Neese,F.; Izsák,R.
     An improved chain of spheres for exchange algorithm
     J. Chem. Phys., 2021 155 104109
     doi.org/doi: 10.1063/5.0058766.
  6. Neese,F.
     The SHARK Integral Generation and Digestion System
     J. Comp. Chem., 2022  1-16
     doi.org/10.1002/jcc.26942

List of suggested additional citations. These are papers that are important in the 'surrounding' of 
of this run, or papers that preceded the highly important papers. If you like your results we are grateful for a citation.

  1. Izsak,R.; Neese,F.
     An overlap fitted chain of spheres exchange method
     J. Chem. Phys., 2011 135 144105
     doi.org/10.1063/1.3646921
  2. Izsak,R.; Hansen,A.; Neese,F.
     The resolution of identity and chain of spheres approximations for the LPNO-CCSD singles Fock term
     Molec. Phys., 2012 110 2413-2417
     doi.org/10.1080/00268976.2012.687466
  3. Neese,F.
     The ORCA program system
     WIRES Comput. Molec. Sci., 2012 2(1)73-78
     doi.org/10.1002/wcms.81
  4. Izsak,R.; Neese,F.; Klopper,W.
     Robust fitting techniques in the chain of spheres approximation to the Fock exchange: The role of the complementary space
     J. Chem. Phys., 2013 139 
     doi.org/10.1063/1.4819264
  5. Neese,F.
     Software update: the ORCA program system, version 4.0
     WIRES Comput. Molec. Sci., 2018 8(1)1-6
     doi.org/10.1002/wcms.1327
  6. Neese,F.; Wennmohs,F.; Becker,U.; Riplinger,C.
     The ORCA quantum chemistry program package
     J. Chem. Phys., 2020 152 Art. No. L224108
     doi.org/10.1063/5.0004608

List of optional additional citations

  1. Neese,F.
     Approximate second-order SCF convergence for spin unrestricted wavefunctions
     Chem. Phys. Lett., 2000 325(1-3)93-98
     doi.org/10.1016/s0009-2614(00)00662-x

Timings for individual modules:

Sum of individual times          ...       85.080 sec (=   1.418 min)
Startup calculation              ...        1.870 sec (=   0.031 min)   2.2 %
SCF iterations                   ...       13.570 sec (=   0.226 min)  15.9 %
Property integrals               ...        0.078 sec (=   0.001 min)   0.1 %
Property calculations            ...        0.109 sec (=   0.002 min)   0.1 %
CIS module                       ...       69.453 sec (=   1.158 min)  81.6 %
                             ****ORCA TERMINATED NORMALLY****
TOTAL RUN TIME: 0 days 0 hours 1 minutes 25 seconds 266 msec
