
                                 *****************
                                 * O   R   C   A *
                                 *****************

                                            #,                                       
                                            ###                                      
                                            ####                                     
                                            #####                                    
                                            ######                                   
                                           ########,                                 
                                     ,,################,,,,,                         
                               ,,#################################,,                 
                          ,,##########################################,,             
                       ,#########################################, ''#####,          
                    ,#############################################,,   '####,        
                  ,##################################################,,,,####,       
                ,###########''''           ''''###############################       
              ,#####''   ,,,,##########,,,,          '''####'''          '####       
            ,##' ,,,,###########################,,,                        '##       
           ' ,,###''''                  '''############,,,                           
         ,,##''                                '''############,,,,        ,,,,,,###''
      ,#''                                            '''#######################'''  
     '                                                          ''''####''''         
             ,#######,   #######,   ,#######,      ##                                
            ,#'     '#,  ##    ##  ,#'     '#,    #''#        ,####,   ,####,        
            ##       ##  ##   ,#'  ##            #'  '#       #'       #'  '#        
            ##       ##  #######   ##           ,######,      #####,   #    #        
            '#,     ,#'  ##    ##  '#,     ,#' ,#      #,     #,   #   #,  ,#        
             '#######'   ##     ##  '#######'  #'      '#     '####' # '####'        



                #########################################################
                #                        -***-                          #
                #          Department of theory and spectroscopy        #
                #                                                       #
                #                      Frank Neese                      #
                #                                                       #
                #     Directorship, Architecture, Infrastructure        #
                #                    SHARK, DRIVERS                     #
                #        Core code/Algorithms in most modules           #
                #                                                       #
                #        Max Planck Institute fuer Kohlenforschung      #
                #                Kaiser Wilhelm Platz 1                 #
                #                 D-45470 Muelheim/Ruhr                 #
                #                      Germany                          #
                #                                                       #
                #                  All rights reserved                  #
                #                        -***-                          #
                #########################################################


                         Program Version 6.0.0  -   RELEASE   -


 With contributions from (in alphabetic order):
   Daniel Aravena         : Magnetic Suceptibility
   Michael Atanasov       : Ab Initio Ligand Field Theory (pilot matlab implementation)
   Alexander A. Auer      : GIAO ZORA, VPT2 properties, NMR spectrum
   Ute Becker             : All parallelization in ORCA, NUMFREQ, NUMCALC
   Giovanni Bistoni       : ED, misc. LED, open-shell LED, HFLD
   Martin Brehm           : Molecular dynamics
   Dmytro Bykov           : pre 5.0 version of the SCF Hessian
   Marcos Casanova-Páez   : Triplet and SCS-CIS(D). UHF-(DLPNO)-IP/EA/STEOM-CCSD. UHF-CVS-IP/STEOM-CCSD
   Vijay G. Chilkuri      : MRCI spin determinant printing, contributions to CSF-ICE
   Pauline Colinet        : FMM embedding
   Dipayan Datta          : RHF DLPNO-CCSD density
   Achintya Kumar Dutta   : EOM-CC, STEOM-CC
   Nicolas Foglia         : Exact transition moments, OPA infrastructure, MCD improvements
   Dmitry Ganyushin       : Spin-Orbit,Spin-Spin,Magnetic field MRCI
   Miquel Garcia          : C-PCM and meta-GGA Hessian, CCSD/C-PCM, Gaussian charge scheme
   Tiago L. C. Gouveia    : GS-ROHF, GS-ROCIS
   Yang Guo               : DLPNO-NEVPT2, F12-NEVPT2, CIM, IAO-localization
   Andreas Hansen         : Spin unrestricted coupled pair/coupled cluster methods
   Ingolf Harden          : AUTO-CI MPn and infrastructure 
   Benjamin Helmich-Paris : MC-RPA, TRAH-(SCF,CASSCF), AVAS, COSX integrals, SCF dyn. polar.
   Lee Huntington         : MR-EOM, pCC
   Robert Izsak           : Overlap fitted RIJCOSX, COSX-SCS-MP3, EOM
   Riya Kayal             : Wick's Theorem for AUTO-CI, AUTO-CI UHF-CCSDT
   Emily Kempfer          : AUTO-CI, RHF CISDT and CCSDT
   Christian Kollmar      : KDIIS, OOCD, Brueckner-CCSD(T), CCSD density, CASPT2, CASPT2-K, improved NEVPT2
   Axel Koslowski         : Symmetry handling
   Simone Kossmann        : Meta GGA functionals, TD-DFT gradient, OOMP2, (MP2 Hessian; deprecated post 5.0)
   Lucas Lang             : DCDCAS
   Marvin Lechner         : AUTO-CI (C++ implementation), FIC-MRCC
   Spencer Leger          : CASSCF response
   Dagmar Lenk            : GEPOL surface, SMD, ORCA-2-JSON
   Dimitrios Liakos       : Extrapolation schemes; Compound Job, initial MDCI parallelization
   Dimitrios Manganas     : Further ROCIS development; embedding schemes. LFT, Crystal Embedding
   Dimitrios Pantazis     : SARC Basis sets
   Anastasios Papadopoulos: AUTO-CI, single reference methods and gradients
   Taras Petrenko         : pre 6.0 DFT Hessian and TD-DFT gradient, (ASA, deprecated), ECA, 1-Electron XAS/XES, NRVS
   Peter Pinski           : DLPNO-MP2, DLPNO-MP2 Gradient
   Christoph Reimann      : Effective Core Potentials
   Marius Retegan         : Local ZFS, SOC
   Christoph Riplinger    : Optimizer, TS searches, QM/MM, DLPNO-CCSD(T), (RO)-DLPNO pert. Triples
   Michael Roemelt        : Original ROCIS implementation
   Masaaki Saitow         : Open-shell DLPNO-CCSD energy and density
   Barbara Sandhoefer     : DKH picture change effects
   Kantharuban Sivalingam : CASSCF convergence/infrastructure, NEVPT2 and variants, FIC-MRCI
   Bernardo de Souza      : ESD, SOC TD-DFT
   Georgi Stoychev        : AutoAux, RI-MP2 NMR, DLPNO-MP2 response, X2C
   Van Anh Tran           : RI-MP2 g-tensors
   Willem Van den Heuvel  : Paramagnetic NMR
   Zikuan Wang            : NOTCH, Electric field optimization 
   Frank Wennmohs         : Technical directorship and infrastructure
   Hang Xu                : AUTO-CI-Response properties 


 We gratefully acknowledge several colleagues who have allowed us to
 interface, adapt or use parts of their codes:
   Stefan Grimme, W. Hujo, H. Kruse, P. Pracht,  : VdW corrections, initial TS optimization,
                  C. Bannwarth, S. Ehlert,         DFT functionals, gCP, sTDA/sTD-DF
                  L. Wittmann, M. Mueller
   Ed Valeev, F. Pavosevic, A. Kumar             : LibInt (2-el integral package), F12 methods
   Garnet Chan, S. Sharma, J. Yang, R. Olivares  : DMRG
   Ulf Ekstrom                                   : XCFun DFT Library
   Mihaly Kallay                                 : mrcc  (arbitrary order and MRCC methods)
   Frank Weinhold                                : gennbo (NPA and NBO analysis)
   Simon Mueller                                 : openCOSMO-RS
   Christopher J. Cramer and Donald G. Truhlar   : smd solvation model
   Lars Goerigk                                  : TD-DFT with DH, B97 family of functionals
   V. Asgeirsson, H. Jonsson                     : NEB implementation
   FAccTs GmbH                                   : IRC, NEB, NEB-TS, DLPNO-Multilevel, CI-OPT
                                                   MM, QMMM, 2- and 3-layer-ONIOM, Crystal-QMMM,
                                                   LR-CPCM, SF, NACMEs, symmetry and pop. for TD-DFT,
                                                   nearIR, NL-DFT gradient (VV10), updates on ESD,
                                                   ML-optimized integration grids, MBIS, APM,
                                                   GOAT, DOCKER, SOLVATOR, interface openCOSMO-RS
   S Lehtola, MJT Oliveira, MAL Marques          : LibXC Library
   Liviu Ungur et al                             : ANISO software


 Your calculation uses the libint2 library for the computation of 2-el integrals
 For citations please refer to: http://libint.valeyev.net

 Your ORCA version has been built with support for libXC version: 6.2.2
 For citations please refer to: https://libxc.gitlab.io

 This ORCA versions uses:
   CBLAS   interface :  Fast vector & matrix operations
   LAPACKE interface :  Fast linear algebra routines
   Shared memory     :  Shared parallel matrices


Warning: RI is on but no J-basis has been assigned. Assigning Def2/J (nothing to worry about!)
================================================================================

----- Orbital basis set information -----
Your calculation utilizes the basis: STO-3G
   H-Ne       : W. J. Hehre, R. F. Stewart and J. A. Pople, J. Chem. Phys. 2657 (1969).
   Na-Ar      : W. J. Hehre, R. Ditchfield, R. F. Stewart and J. A. Pople, J. Chem. Phys. 2769 (1970).
   K,Ca,Ga-Kr : W. J. Pietro, B. A. Levy, W. J. Hehre and R. F. Stewart, J. Am. Chem. Soc. 19, 2225 (1980).
   Sc-Zn,Y-Cd : W. J. Pietro and W. J. Hehre, J. Comp. Chem. 4, 241 (1983).

----- AuxJ basis set information -----
Your calculation utilizes the auxiliary basis: def2/J
   F. Weigend, Phys. Chem. Chem. Phys. 8, 1057 (2006).

================================================================================
                                        WARNINGS
                       Please study these warnings very carefully!
================================================================================


WARNING: Geometry Optimization
  ===> : Switching off AutoStart
         For restart on a previous wavefunction, please use MOREAD

================================================================================
                                       INPUT FILE
================================================================================
NAME = Dexketoprofen\Dexketoprofen_B3LYP_STO-3G\Dexketoprofen_B3LYP_STO-3G.orcainp
|  1> # ORCA input file
|  2> # 
|  3> !B3LYP STO-3G Opt CPCM(WATER)
|  4> * xyz 0 1
|  5>    H        1.09662        -0.20425         0.32676
|  6>    C        2.13797        -0.11108        -0.01052
|  7>    C        2.12649         0.62804        -1.35353
|  8>    C        2.82666         0.75101         1.05036
|  9>    O        3.42837         0.07530         2.05584
| 10>    O        2.79236         1.97380         1.05318
| 11>    C        2.71761        -1.51246        -0.17817
| 12>    C        1.93400        -2.64563         0.11349
| 13>    C        2.46764        -3.93628        -0.02637
| 14>    C        3.77114        -4.09904        -0.50532
| 15>    C        4.55448        -2.98406        -0.79480
| 16>    C        4.03583        -1.70072        -0.62371
| 17>    C        1.68733        -5.16375         0.28429
| 18>    O        1.87299        -6.17087        -0.39524
| 19>    C        0.70964        -5.21669         1.40278
| 20>    C        0.85415        -4.43205         2.55380
| 21>    C       -0.08941        -4.51477         3.57938
| 22>    C       -1.16344        -5.39791         3.47203
| 23>    C       -1.29213        -6.20776         2.34434
| 24>    C       -0.35568        -6.12155         1.31302
| 25>    H        1.60784         1.58944        -1.26613
| 26>    H        1.61662         0.04215        -2.12585
| 27>    H        3.14163         0.84360        -1.70681
| 28>    H        3.41398        -0.89696         1.96534
| 29>    H        0.90004        -2.51911         0.43007
| 30>    H        4.17798        -5.09810        -0.65507
| 31>    H        5.56968        -3.11822        -1.16231
| 32>    H        4.67199        -0.84709        -0.85704
| 33>    H        1.70284        -3.76706         2.68065
| 34>    H        0.01844        -3.89919         4.46945
| 35>    H       -1.89326        -5.46596         4.27487
| 36>    H       -2.11824        -6.91083         2.26952
| 37>    H       -0.45599        -6.76552         0.44094
| 38> *
| 39> 
| 40>                          ****END OF INPUT****
================================================================================

                       *****************************
                       * Geometry Optimization Run *
                       *****************************

Geometry optimization settings:
Update method            Update   .... BFGS
Choice of coordinates    CoordSys .... (2022) Redundant Internals
Initial Hessian          InHess   .... Almloef's Model
Max. no of cycles        MaxIter  .... 99

Convergence Tolerances:
Energy Change            TolE     ....  5.0000e-06 Eh
Max. Gradient            TolMAXG  ....  3.0000e-04 Eh/bohr
RMS Gradient             TolRMSG  ....  1.0000e-04 Eh/bohr
Max. Displacement        TolMAXD  ....  4.0000e-03 bohr
RMS Displacement         TolRMSD  ....  2.0000e-03 bohr
Strict Convergence                .... False

------------------------------------------------------------------------------
                        ORCA OPTIMIZATION COORDINATE SETUP
------------------------------------------------------------------------------

The optimization will be done in redundant internal coordinates (2022)
Making redundant internal coordinates   ...  (2022 redundants) done
Evaluating the initial hessian          ...  (Almloef) done
Evaluating the coordinates              ...  done
Calculating the B-matrix                .... done
Calculating the G-matrix                .... done
Diagonalizing the G-matrix              .... done
Small eigenvalue found = 3.170e-03
Small eigenvalue found = 1.297e-02
Small eigenvalue found = 1.621e-02
Small eigenvalue found = 2.759e-02
The first mode is                       ....   70
The number of degrees of freedom        ....   93

    -----------------------------------------------------------------
                    Redundant Internal Coordinates


    -----------------------------------------------------------------
         Definition                    Initial Value    Approx d2E/dq
    -----------------------------------------------------------------
      1. B(C   1,H   0)                  1.0986         0.348944   
      2. B(C   2,C   1)                  1.5330         0.369473   
      3. B(C   3,C   1)                  1.5307         0.372652   
      4. B(O   4,C   3)                  1.3526         0.641925   
      5. B(O   5,C   3)                  1.2233         1.032466   
      6. B(C   6,C   1)                  1.5258         0.379434   
      7. B(C   7,C   6)                  1.4083         0.584269   
      8. B(C   8,C   7)                  1.4036         0.594335   
      9. B(C   9,C   8)                  1.3982         0.606230   
     10. B(C  10,C   9)                  1.3931         0.617825   
     11. B(C  11,C  10)                  1.3947         0.614066   
     12. B(C  11,C   6)                  1.4042         0.593137   
     13. B(C  12,C   8)                  1.4873         0.437013   
     14. B(O  13,C  12)                  1.2290         1.010854   
     15. B(C  14,C  12)                  1.4865         0.438298   
     16. B(C  15,C  14)                  1.4005         0.601163   
     17. B(C  16,C  15)                  1.3961         0.611058   
     18. B(C  17,C  16)                  1.3946         0.614253   
     19. B(C  18,C  17)                  1.3943         0.614980   
     20. B(C  19,C  18)                  1.3957         0.611839   
     21. B(C  19,C  14)                  1.4006         0.600891   
     22. B(H  20,C   2)                  1.0959         0.352421   
     23. B(H  21,C   2)                  1.0953         0.353138   
     24. B(H  22,C   2)                  1.0963         0.351916   
     25. B(H  23,O   4)                  0.9766         0.489251   
     26. B(H  24,C   7)                  1.0887         0.361802   
     27. B(H  25,C   9)                  1.0891         0.361338   
     28. B(H  26,C  10)                  1.0880         0.362786   
     29. B(H  27,C  11)                  1.0899         0.360266   
     30. B(H  28,C  15)                  1.0856         0.365937   
     31. B(H  29,C  16)                  1.0876         0.363337   
     32. B(H  30,C  17)                  1.0871         0.363936   
     33. B(H  31,C  18)                  1.0874         0.363602   
     34. B(H  32,C  19)                  1.0887         0.361815   
     35. A(C   2,C   1,C   3)          109.8164         0.362514   
     36. A(C   3,C   1,C   6)          114.9940         0.364166   
     37. A(H   0,C   1,C   2)          107.6234         0.322065   
     38. A(H   0,C   1,C   3)          105.1573         0.322518   
     39. A(H   0,C   1,C   6)          108.4184         0.323473   
     40. A(C   2,C   1,C   6)          110.4516         0.363632   
     41. A(C   1,C   2,H  21)          111.3037         0.322697   
     42. A(H  20,C   2,H  22)          106.9450         0.288815   
     43. A(C   1,C   2,H  20)          110.8947         0.322589   
     44. A(H  20,C   2,H  21)          107.7699         0.288972   
     45. A(H  21,C   2,H  22)          107.9994         0.288907   
     46. A(C   1,C   2,H  22)          111.7273         0.322513   
     47. A(O   4,C   3,O   5)          120.6713         0.472947   
     48. A(C   1,C   3,O   5)          123.5022         0.431297   
     49. A(C   1,C   3,O   4)          115.7213         0.396390   
     50. A(C   3,O   4,H  23)          114.9548         0.368459   
     51. A(C   7,C   6,C  11)          118.6996         0.426065   
     52. A(C   1,C   6,C  11)          120.9747         0.394689   
     53. A(C   1,C   6,C   7)          120.3257         0.393649   
     54. A(C   8,C   7,H  24)          119.7953         0.350675   
     55. A(C   6,C   7,C   8)          120.5118         0.426219   
     56. A(C   6,C   7,H  24)          119.6808         0.349665   
     57. A(C   7,C   8,C   9)          119.7099         0.429047   
     58. A(C   9,C   8,C  12)          117.6836         0.406186   
     59. A(C   7,C   8,C  12)          122.5885         0.404767   
     60. A(C   8,C   9,C  10)          120.1483         0.432043   
     61. A(C  10,C   9,H  25)          119.7093         0.352904   
     62. A(C   8,C   9,H  25)          120.1423         0.351775   
     63. A(C   9,C  10,H  26)          119.7490         0.353143   
     64. A(C  11,C  10,H  26)          120.1254         0.352779   
     65. A(C   9,C  10,C  11)          120.1238         0.433042   
     66. A(C  10,C  11,H  27)          118.5137         0.352363   
     67. A(C   6,C  11,H  27)          120.7236         0.350304   
     68. A(C   6,C  11,C  10)          120.7571         0.429881   
     69. A(O  13,C  12,C  14)          119.0903         0.442405   
     70. A(C   8,C  12,C  14)          122.1150         0.383734   
     71. A(C   8,C  12,O  13)          118.7862         0.442171   
     72. A(C  15,C  14,C  19)          119.5448         0.429245   
     73. A(C  12,C  14,C  19)          118.3624         0.405762   
     74. A(C  12,C  14,C  15)          122.0444         0.405795   
     75. A(C  14,C  15,C  16)          120.0549         0.430540   
     76. A(C  16,C  15,H  28)          118.6088         0.353002   
     77. A(C  14,C  15,H  28)          121.3241         0.352028   
     78. A(C  15,C  16,C  17)          120.0979         0.432209   
     79. A(C  17,C  16,H  29)          119.8540         0.352887   
     80. A(C  15,C  16,H  29)          120.0439         0.352576   
     81. A(C  16,C  17,C  18)          120.0752         0.432706   
     82. A(C  18,C  17,H  30)          119.9317         0.353056   
     83. A(C  16,C  17,H  30)          119.9868         0.352986   
     84. A(C  17,C  18,C  19)          119.9883         0.432400   
     85. A(C  19,C  18,H  31)          119.9232         0.352696   
     86. A(C  17,C  18,H  31)          120.0875         0.353001   
     87. A(C  14,C  19,C  18)          120.1907         0.430604   
     88. A(C  18,C  19,H  32)          119.5736         0.352402   
     89. A(C  14,C  19,H  32)          120.2350         0.351327   
     90. D(H  21,C   2,C   1,C   6)     53.5300         0.010915   
     91. D(H  21,C   2,C   1,H   0)    -64.6524         0.010915   
     92. D(H  20,C   2,C   1,H   0)     55.3150         0.010915   
     93. D(H  21,C   2,C   1,C   3)   -178.6116         0.010915   
     94. D(H  20,C   2,C   1,C   6)    173.4974         0.010915   
     95. D(H  20,C   2,C   1,C   3)    -58.6442         0.010915   
     96. D(O   4,C   3,C   1,C   2)   -151.9883         0.010389   
     97. D(O   4,C   3,C   1,C   6)    -26.6943         0.010389   
     98. D(O   4,C   3,C   1,H   0)     92.4788         0.010389   
     99. D(O   5,C   3,C   1,C   2)     31.7265         0.010389   
    100. D(O   5,C   3,C   1,H   0)    -83.8065         0.010389   
    101. D(H  23,O   4,C   3,C   1)      4.1282         0.030392   
    102. D(H  23,O   4,C   3,O   5)   -179.4731         0.030392   
    103. D(C   7,C   6,C   1,H   0)     -1.0391         0.010745   
    104. D(C   7,C   6,C   1,C   2)   -118.7338         0.010745   
    105. D(C   7,C   6,C   1,C   3)    116.3033         0.010745   
    106. D(C  11,C   6,C   1,C   2)     61.2718         0.010745   
    107. D(C  11,C   6,C   1,H   0)    178.9666         0.010745   
    108. D(H  24,C   7,C   6,C  11)   -178.0886         0.023470   
    109. D(C   8,C   7,C   6,C  11)      0.6435         0.023470   
    110. D(H  24,C   7,C   6,C   1)      1.9169         0.023470   
    111. D(C   8,C   7,C   6,C   1)   -179.3510         0.023470   
    112. D(C  12,C   8,C   7,H  24)     -2.0246         0.024327   
    113. D(C  12,C   8,C   7,C   6)    179.2448         0.024327   
    114. D(C   9,C   8,C   7,H  24)    176.3959         0.024327   
    115. D(C   9,C   8,C   7,C   6)     -2.3348         0.024327   
    116. D(H  25,C   9,C   8,C  12)      0.9930         0.025364   
    117. D(H  25,C   9,C   8,C   7)   -177.5042         0.025364   
    118. D(C  10,C   9,C   8,C  12)   -179.0959         0.025364   
    119. D(C  10,C   9,C   8,C   7)      2.4069         0.025364   
    120. D(C  11,C  10,C   9,C   8)     -0.7943         0.026402   
    121. D(H  26,C  10,C   9,H  25)     -0.4016         0.026402   
    122. D(H  26,C  10,C   9,C   8)    179.6869         0.026402   
    123. D(C  11,C  10,C   9,H  25)    179.1172         0.026402   
    124. D(H  27,C  11,C  10,H  26)     -0.5525         0.026063   
    125. D(H  27,C  11,C  10,C   9)    179.9305         0.026063   
    126. D(C   6,C  11,C  10,H  26)    178.5956         0.026063   
    127. D(C   6,C  11,C  10,C   9)     -0.9213         0.026063   
    128. D(H  27,C  11,C   6,C   7)   -179.8830         0.024224   
    129. D(C  10,C  11,C   6,C   7)      0.9877         0.024224   
    130. D(C  10,C  11,C   6,C   1)   -179.0178         0.024224   
    131. D(H  27,C  11,C   6,C   1)      0.1114         0.024224   
    132. D(C  14,C  12,C   8,C   9)    145.7235         0.013036   
    133. D(C  14,C  12,C   8,C   7)    -35.8257         0.013036   
    134. D(O  13,C  12,C   8,C   9)    -33.2109         0.013036   
    135. D(O  13,C  12,C   8,C   7)    145.2398         0.013036   
    136. D(C  19,C  14,C  12,O  13)    -27.6903         0.013111   
    137. D(C  19,C  14,C  12,C   8)    153.3783         0.013111   
    138. D(C  15,C  14,C  12,O  13)    149.7664         0.013111   
    139. D(C  15,C  14,C  12,C   8)    -29.1649         0.013111   
    140. D(H  28,C  15,C  14,C  19)    176.1303         0.024919   
    141. D(H  28,C  15,C  14,C  12)     -1.2973         0.024919   
    142. D(C  16,C  15,C  14,C  19)     -2.5779         0.024919   
    143. D(C  16,C  15,C  14,C  12)    179.9945         0.024919   
    144. D(H  29,C  16,C  15,H  28)      1.7750         0.025793   
    145. D(H  29,C  16,C  15,C  14)   -179.4820         0.025793   
    146. D(C  17,C  16,C  15,H  28)   -177.4721         0.025793   
    147. D(C  17,C  16,C  15,C  14)      1.2709         0.025793   
    148. D(H  30,C  17,C  16,H  29)      0.3171         0.026079   
    149. D(H  30,C  17,C  16,C  15)    179.5656         0.026079   
    150. D(C  18,C  17,C  16,H  29)   -178.7729         0.026079   
    151. D(C  18,C  17,C  16,C  15)      0.4756         0.026079   
    152. D(C  19,C  18,C  17,C  16)     -0.8972         0.026145   
    153. D(H  31,C  18,C  17,H  30)     -0.3334         0.026145   
    154. D(H  31,C  18,C  17,C  16)    178.7571         0.026145   
    155. D(C  19,C  18,C  17,H  30)   -179.9877         0.026145   
    156. D(H  32,C  19,C  18,H  31)     -0.3833         0.025863   
    157. D(H  32,C  19,C  18,C  17)    179.2716         0.025863   
    158. D(C  14,C  19,C  18,H  31)    179.9174         0.025863   
    159. D(C  14,C  19,C  18,C  17)     -0.4277         0.025863   
    160. D(H  32,C  19,C  14,C  15)   -177.5382         0.024895   
    161. D(H  32,C  19,C  14,C  12)     -0.0161         0.024895   
    162. D(C  18,C  19,C  14,C  15)      2.1591         0.024895   
    163. D(C  18,C  19,C  14,C  12)    179.6813         0.024895   
    -----------------------------------------------------------------

Number of atoms                         .... 33
Number of degrees of freedom            .... 163


         *************************************************************
         *                GEOMETRY OPTIMIZATION CYCLE   1            *
         *************************************************************
---------------------------------
CARTESIAN COORDINATES (ANGSTROEM)
---------------------------------
  H      1.096620   -0.204250    0.326760
  C      2.137970   -0.111080   -0.010520
  C      2.126490    0.628040   -1.353530
  C      2.826660    0.751010    1.050360
  O      3.428370    0.075300    2.055840
  O      2.792360    1.973800    1.053180
  C      2.717610   -1.512460   -0.178170
  C      1.934000   -2.645630    0.113490
  C      2.467640   -3.936280   -0.026370
  C      3.771140   -4.099040   -0.505320
  C      4.554480   -2.984060   -0.794800
  C      4.035830   -1.700720   -0.623710
  C      1.687330   -5.163750    0.284290
  O      1.872990   -6.170870   -0.395240
  C      0.709640   -5.216690    1.402780
  C      0.854150   -4.432050    2.553800
  C     -0.089410   -4.514770    3.579380
  C     -1.163440   -5.397910    3.472030
  C     -1.292130   -6.207760    2.344340
  C     -0.355680   -6.121550    1.313020
  H      1.607840    1.589440   -1.266130
  H      1.616620    0.042150   -2.125850
  H      3.141630    0.843600   -1.706810
  H      3.413980   -0.896960    1.965340
  H      0.900040   -2.519110    0.430070
  H      4.177980   -5.098100   -0.655070
  H      5.569680   -3.118220   -1.162310
  H      4.671990   -0.847090   -0.857040
  H      1.702840   -3.767060    2.680650
  H      0.018440   -3.899190    4.469450
  H     -1.893260   -5.465960    4.274870
  H     -2.118240   -6.910830    2.269520
  H     -0.455990   -6.765520    0.440940

----------------------------
CARTESIAN COORDINATES (A.U.)
----------------------------
  NO LB      ZA    FRAG     MASS         X           Y           Z
   0 H     1.0000    0     1.008    2.072311   -0.385977    0.617487
   1 C     6.0000    0    12.011    4.040178   -0.209911   -0.019880
   2 C     6.0000    0    12.011    4.018484    1.186824   -2.557801
   3 C     6.0000    0    12.011    5.341613    1.419203    1.984893
   4 O     8.0000    0    15.999    6.478680    0.142296    3.884975
   5 O     8.0000    0    15.999    5.276796    3.729941    1.990222
   6 C     6.0000    0    12.011    5.135539   -2.858135   -0.336693
   7 C     6.0000    0    12.011    3.654730   -4.999516    0.214465
   8 C     6.0000    0    12.011    4.663164   -7.438491   -0.049832
   9 C     6.0000    0    12.011    7.126422   -7.746063   -0.954916
  10 C     6.0000    0    12.011    8.606720   -5.639056   -1.501954
  11 C     6.0000    0    12.011    7.626613   -3.213895   -1.178641
  12 C     6.0000    0    12.011    3.188592   -9.758073    0.537230
  13 O     8.0000    0    15.999    3.539438  -11.661254   -0.746895
  14 C     6.0000    0    12.011    1.341025   -9.858115    2.650870
  15 C     6.0000    0    12.011    1.614110   -8.375361    4.825983
  16 C     6.0000    0    12.011   -0.168960   -8.531679    6.764048
  17 C     6.0000    0    12.011   -2.198583  -10.200572    6.561186
  18 C     6.0000    0    12.011   -2.441772  -11.730966    4.430161
  19 C     6.0000    0    12.011   -0.672138  -11.568053    2.481248
  20 H     1.0000    0     1.008    3.038377    3.003606   -2.392639
  21 H     1.0000    0     1.008    3.054969    0.079652   -4.017274
  22 H     1.0000    0     1.008    5.936820    1.594173   -3.225403
  23 H     1.0000    0     1.008    6.451487   -1.695009    3.713954
  24 H     1.0000    0     1.008    1.700829   -4.760428    0.812715
  25 H     1.0000    0     1.008    7.895238   -9.634013   -1.237903
  26 H     1.0000    0     1.008   10.525170   -5.892582   -2.196448
  27 H     1.0000    0     1.008    8.828782   -1.600768   -1.619571
  28 H     1.0000    0     1.008    3.217901   -7.118712    5.065694
  29 H     1.0000    0     1.008    0.034847   -7.368401    8.446036
  30 H     1.0000    0     1.008   -3.577743  -10.329167    8.078334
  31 H     1.0000    0     1.008   -4.002893  -13.059576    4.288771
  32 H     1.0000    0     1.008   -0.861696  -12.784980    0.833256

--------------------------------
INTERNAL COORDINATES (ANGSTROEM)
--------------------------------
 H      0   0   0     0.000000000000     0.00000000     0.00000000
 C      1   0   0     1.098566461258     0.00000000     0.00000000
 C      2   1   0     1.533005552795   107.62340938     0.00000000
 C      2   1   3     1.530672877724   105.15733455   117.03767684
 O      4   2   1     1.352637778047   115.72133848    92.47875254
 O      4   2   1     1.223274223754   123.50219437   276.19352862
 C      2   1   3     1.525763728924   108.41839138   240.51438383
 C      7   2   1     1.408255813622   120.32570271   358.96093587
 C      8   7   2     1.403606031513   120.51177098   180.64899473
 C      9   8   7     1.398211775841   119.70992143   357.66522722
 C     10   9   8     1.393054423345   120.14832190     2.40693947
 C     11  10   9     1.394715442734   120.12384667   359.20570594
 C      9   8   7     1.487304922536   122.58853406   179.24475891
 O     13   9   8     1.229032689110   118.78621433   145.23984250
 C     13   9   8     1.486506057774   122.11502274   324.17428102
 C     15  13   9     1.400496379895   122.04444038   330.83514153
 C     16  15  13     1.396052437554   120.05485425   179.99449155
 C     17  16  15     1.394632827306   120.09787136     1.27089464
 C     18  17  16     1.394310895998   120.07520224     0.47561130
 C     19  18  17     1.395704735609   119.98834559   359.10278352
 H      3   2   1     1.095867940265   110.89471659    55.31497535
 H      3   2   1     1.095313969326   111.30368068   295.34758165
 H      3   2   1     1.096258223048   111.72730933   174.52150211
 H      5   4   2     0.976568906785   114.95483919     4.12821327
 H      8   7   2     1.088716440769   119.68079471     1.91685859
 H     10   9   8     1.089065990517   120.14231725   182.49583062
 H     11  10   9     1.087976813034   119.74898539   179.68694503
 H     12  11  10     1.089874585170   118.51374391   179.93051835
 H     16  15  13     1.085623018686   121.32409245   358.70268205
 H     17  16  15     1.087563774590   120.04385632   180.51797952
 H     18  17  16     1.087115495474   119.98681805   179.56561602
 H     19  18  17     1.087365251146   120.08750906   178.75711314
 H     20  19  18     1.088707023675   119.57356025   179.27163915

---------------------------
INTERNAL COORDINATES (A.U.)
---------------------------
 H      0   0   0     0.000000000000     0.00000000     0.00000000
 C      1   0   0     2.075989751688     0.00000000     0.00000000
 C      2   1   0     2.896960656563   107.62340938     0.00000000
 C      2   1   3     2.892552539520   105.15733455   117.03767684
 O      4   2   1     2.556114958905   115.72133848    92.47875254
 O      4   2   1     2.311653269579   123.50219437   276.19352862
 C      2   1   3     2.883275592737   108.41839138   240.51438383
 C      7   2   1     2.661217814248   120.32570271   358.96093587
 C      8   7   2     2.652430999480   120.51177098   180.64899473
 C      9   8   7     2.642237333563   119.70992143   357.66522722
 C     10   9   8     2.632491349769   120.14832190     2.40693947
 C     11  10   9     2.635630221518   120.12384667   359.20570594
 C      9   8   7     2.810598981226   122.58853406   179.24475891
 O     13   9   8     2.322535192054   118.78621433   145.23984250
 C     13   9   8     2.809089345609   122.11502274   324.17428102
 C     15  13   9     2.646554609550   122.04444038   330.83514153
 C     16  15  13     2.638156775570   120.05485425   179.99449155
 C     17  16  15     2.635474100985   120.09787136     1.27089464
 C     18  17  16     2.634865738979   120.07520224     0.47561130
 C     19  18  17     2.637499714117   119.98834559   359.10278352
 H      3   2   1     2.070890286045   110.89471659    55.31497535
 H      3   2   1     2.069843432684   111.30368068   295.34758165
 H      3   2   1     2.071627813620   111.72730933   174.52150211
 H      5   4   2     1.845447784727   114.95483919     4.12821327
 H      8   7   2     2.057375910550   119.68079471     1.91685859
 H     10   9   8     2.058036463844   120.14231725   182.49583062
 H     11  10   9     2.055978216691   119.74898539   179.68694503
 H     12  11  10     2.059564486293   118.51374391   179.93051835
 H     16  15  13     2.051530189997   121.32409245   358.70268205
 H     17  16  15     2.055197687148   120.04385632   180.51797952
 H     18  17  16     2.054350562388   119.98681805   179.56561602
 H     19  18  17     2.054822532209   120.08750906   178.75711314
 H     20  19  18     2.057358114823   119.57356025   179.27163915

---------------------
BASIS SET INFORMATION
---------------------
There are 3 groups of distinct atoms

 Group   1 Type H   : 3s contracted to 1s pattern {3}
 Group   2 Type C   : 6s3p contracted to 2s1p pattern {33/3}
 Group   3 Type O   : 6s3p contracted to 2s1p pattern {33/3}

Atom   0H    basis set group =>   1
Atom   1C    basis set group =>   2
Atom   2C    basis set group =>   2
Atom   3C    basis set group =>   2
Atom   4O    basis set group =>   3
Atom   5O    basis set group =>   3
Atom   6C    basis set group =>   2
Atom   7C    basis set group =>   2
Atom   8C    basis set group =>   2
Atom   9C    basis set group =>   2
Atom  10C    basis set group =>   2
Atom  11C    basis set group =>   2
Atom  12C    basis set group =>   2
Atom  13O    basis set group =>   3
Atom  14C    basis set group =>   2
Atom  15C    basis set group =>   2
Atom  16C    basis set group =>   2
Atom  17C    basis set group =>   2
Atom  18C    basis set group =>   2
Atom  19C    basis set group =>   2
Atom  20H    basis set group =>   1
Atom  21H    basis set group =>   1
Atom  22H    basis set group =>   1
Atom  23H    basis set group =>   1
Atom  24H    basis set group =>   1
Atom  25H    basis set group =>   1
Atom  26H    basis set group =>   1
Atom  27H    basis set group =>   1
Atom  28H    basis set group =>   1
Atom  29H    basis set group =>   1
Atom  30H    basis set group =>   1
Atom  31H    basis set group =>   1
Atom  32H    basis set group =>   1
---------------------------------
AUXILIARY/J BASIS SET INFORMATION
---------------------------------
There are 3 groups of distinct atoms

 Group   1 Type H   : 5s2p1d contracted to 3s1p1d pattern {311/2/1}
 Group   2 Type C   : 12s5p4d2f1g contracted to 6s4p3d1f1g pattern {711111/2111/211/2/1}
 Group   3 Type O   : 12s5p4d2f1g contracted to 6s4p3d1f1g pattern {711111/2111/211/2/1}

Atom   0H    basis set group =>   1
Atom   1C    basis set group =>   2
Atom   2C    basis set group =>   2
Atom   3C    basis set group =>   2
Atom   4O    basis set group =>   3
Atom   5O    basis set group =>   3
Atom   6C    basis set group =>   2
Atom   7C    basis set group =>   2
Atom   8C    basis set group =>   2
Atom   9C    basis set group =>   2
Atom  10C    basis set group =>   2
Atom  11C    basis set group =>   2
Atom  12C    basis set group =>   2
Atom  13O    basis set group =>   3
Atom  14C    basis set group =>   2
Atom  15C    basis set group =>   2
Atom  16C    basis set group =>   2
Atom  17C    basis set group =>   2
Atom  18C    basis set group =>   2
Atom  19C    basis set group =>   2
Atom  20H    basis set group =>   1
Atom  21H    basis set group =>   1
Atom  22H    basis set group =>   1
Atom  23H    basis set group =>   1
Atom  24H    basis set group =>   1
Atom  25H    basis set group =>   1
Atom  26H    basis set group =>   1
Atom  27H    basis set group =>   1
Atom  28H    basis set group =>   1
Atom  29H    basis set group =>   1
Atom  30H    basis set group =>   1
Atom  31H    basis set group =>   1
Atom  32H    basis set group =>   1
------------------------------------------------------------------------------
                             ORCA STARTUP CALCULATIONS
                           -- RI-GTO INTEGRALS CHOSEN --
------------------------------------------------------------------------------
------------------------------------------------------------------------------
                   ___                                                        
                  /   \      - P O W E R E D   B Y -                         
                 /     \                                                     
                 |  |  |   _    _      __       _____    __    __             
                 |  |  |  | |  | |    /  \     |  _  \  |  |  /  |          
                  \  \/   | |  | |   /    \    | | | |  |  | /  /          
                 / \  \   | |__| |  /  /\  \   | |_| |  |  |/  /          
                |  |  |   |  __  | /  /__\  \  |    /   |      \           
                |  |  |   | |  | | |   __   |  |    \   |  |\   \          
                \     /   | |  | | |  |  |  |  | |\  \  |  | \   \       
                 \___/    |_|  |_| |__|  |__|  |_| \__\ |__|  \__/        
                                                                              
                      - O R C A' S   B I G   F R I E N D -                    
                                      &                                       
                       - I N T E G R A L  F E E D E R -                       
                                                                              
 v1 FN, 2020, v2 2021, v3 2022-2024                                           
------------------------------------------------------------------------------


----------------------
SHARK INTEGRAL PACKAGE
----------------------

Number of atoms                             ...     33
Number of basis functions                   ...    109
Number of shells                            ...     71
Maximum angular momentum                    ...      1
Integral batch strategy                     ... SHARK/LIBINT Hybrid
RI-J (if used) integral strategy            ... SPLIT-RIJ (Revised 2003 algorithm where possible)
Printlevel                                  ...      1
Contraction scheme used                     ... SEGMENTED contraction
Prescreening option                         ... SCHWARTZ
   Thresh                                   ... 2.500e-11
   Tcut                                     ... 2.500e-12
   Tpresel                                  ... 2.500e-12 
Coulomb Range Separation                    ... NOT USED
Exchange Range Separation                   ... NOT USED
Multipole approximations                    ... NOT USED
Finite Nucleus Model                        ... NOT USED
CABS basis                                  ... NOT available
Auxiliary Coulomb fitting basis             ... AVAILABLE
   # of basis functions in Aux-J            ...   1085
   # of shells in Aux-J                     ...    355
   Maximum angular momentum in Aux-J        ...      4
Auxiliary J/K fitting basis                 ... NOT available
Auxiliary Correlation fitting basis         ... NOT available
Auxiliary 'external' fitting basis          ... NOT available

Checking pre-screening integrals            ... done (  0.0 sec) Dimension = 71
Check shell pair data                       ... done (  0.0 sec)
Shell pair information
Shell pair cut-off parameter TPreSel        ...   2.5e-12
Total number of shell pairs                 ...      2556
Shell pairs after pre-screening             ...      2049
Total number of primitive shell pairs       ...     23004
Primitive shell pairs kept                  ...     11443
          la=0 lb=0:   1018 shell pairs
          la=1 lb=0:    850 shell pairs
          la=1 lb=1:    181 shell pairs

Calculating one electron integrals          ... done (  0.0 sec)
Calculating RI/J V-Matrix + Cholesky decomp.... done (  0.0 sec)
Calculating Nuclear repulsion               ... done (  0.0 sec) ENN=   1312.841986003011 Eh

Diagonalization of the overlap matrix:
Smallest eigenvalue                        ... 1.722e-01
Time for diagonalization                   ...    0.001 sec
Threshold for overlap eigenvalues          ... 1.000e-07
Number of eigenvalues below threshold      ... 0
Time for construction of square roots      ...    0.001 sec
Total time needed                          ...    0.003 sec

-------------------
DFT GRID GENERATION
-------------------

General Integration Accuracy     IntAcc      ... 4.388
Radial Grid Type                 RadialGrid  ... OptM3 with GC (2021)
Angular Grid (max. ang.)         AngularGrid ... 4 (Lebedev-302)
Angular grid pruning method      GridPruning ... 4 (adaptive)
Weight generation scheme         WeightScheme... mBecke (2022)
Basis function cutoff            BFCut       ... 1.0000e-11
Integration weight cutoff        WCut        ... 1.0000e-14
Partially contracted basis set               ... off
Rotationally invariant grid construction     ... off
Angular grids for H and He will be reduced by one unit

Total number of grid points                  ...   158473
Total number of batches                      ...     2493
Average number of points per batch           ...       63
Average number of grid points per atom       ...     4802

--------------------
COSX GRID GENERATION
--------------------

GRIDX 1
-------
General Integration Accuracy     IntAcc      ... 3.816
Radial Grid Type                 RadialGrid  ... OptM3 with GC (2021)
Angular Grid (max. ang.)         AngularGrid ... 1 (Lebedev-50)
Angular grid pruning method      GridPruning ... 4 (adaptive)
Weight generation scheme         WeightScheme... mBecke (2022)
Basis function cutoff            BFCut       ... 1.0000e-11
Integration weight cutoff        WCut        ... 1.0000e-14
Partially contracted basis set               ... on
Rotationally invariant grid construction     ... off
Angular grids for H and He will be reduced by one unit

Total number of grid points                  ...    20106
Total number of batches                      ...      174
Average number of points per batch           ...      115
Average number of grid points per atom       ...      609
UseSFitting                                  ... on

GRIDX 2
-------
General Integration Accuracy     IntAcc      ... 4.020
Radial Grid Type                 RadialGrid  ... OptM3 with GC (2021)
Angular Grid (max. ang.)         AngularGrid ... 2 (Lebedev-110)
Angular grid pruning method      GridPruning ... 4 (adaptive)
Weight generation scheme         WeightScheme... mBecke (2022)
Basis function cutoff            BFCut       ... 1.0000e-11
Integration weight cutoff        WCut        ... 1.0000e-14
Partially contracted basis set               ... on
Rotationally invariant grid construction     ... off
Angular grids for H and He will be reduced by one unit

Total number of grid points                  ...    43947
Total number of batches                      ...      359
Average number of points per batch           ...      122
Average number of grid points per atom       ...     1332
UseSFitting                                  ... on

GRIDX 3
-------
General Integration Accuracy     IntAcc      ... 4.338
Radial Grid Type                 RadialGrid  ... OptM3 with GC (2021)
Angular Grid (max. ang.)         AngularGrid ... 3 (Lebedev-194)
Angular grid pruning method      GridPruning ... 4 (adaptive)
Weight generation scheme         WeightScheme... mBecke (2022)
Basis function cutoff            BFCut       ... 1.0000e-11
Integration weight cutoff        WCut        ... 1.0000e-14
Partially contracted basis set               ... on
Rotationally invariant grid construction     ... off
Angular grids for H and He will be reduced by one unit

Total number of grid points                  ...    96276
Total number of batches                      ...      769
Average number of points per batch           ...      125
Average number of grid points per atom       ...     2917
UseSFitting                                  ... on
Initializing property integral containers    ... done (  0.0 sec)

SHARK setup successfully completed in   1.7 seconds

Maximum memory used throughout the entire STARTUP-calculation: 55.2 MB
-------------------------------------------------------------------------------
                                 ORCA GUESS
                   Start orbitals & Density for SCF / CASSCF
-------------------------------------------------------------------------------

------------
SCF SETTINGS
------------
Hamiltonian:
 Density Functional     Method          .... DFT(GTOs)
 Exchange Functional    Exchange        .... B88
   X-Alpha parameter    XAlpha          ....  0.666667
   Becke's b parameter  XBeta           ....  0.004200
 Correlation Functional Correlation     .... LYP
 LDA part of GGA corr.  LDAOpt          .... VWN-5
 Gradients option       PostSCFGGA      .... off
 Hybrid DFT is turned on
   Fraction HF Exchange ScalHFX         ....  0.200000
   Scaling of DF-GGA-X  ScalDFX         ....  0.720000
   Scaling of DF-GGA-C  ScalDFC         ....  0.810000
   Scaling of DF-LDA-C  ScalLDAC        ....  1.000000
   Perturbative correction              ....  0.000000
   NL short-range parameter             ....  4.800000
 RI-approximation to the Coulomb term is turned on
   Number of AuxJ basis functions       .... 1085
   RIJ-COSX (HFX calculated with COS-X)).... on


General Settings:
 Integral files         IntName         .... Dexketoprofen\Dexketoprofen_B3LYP_STO-3G\Dexketoprofen_B3LYP_STO-3G.orcainp
 Hartree-Fock type      HFTyp           .... RHF
 Total Charge           Charge          ....    0
 Multiplicity           Mult            ....    1
 Number of Electrons    NEL             ....  134
 Basis Dimension        Dim             ....  109
 Nuclear Repulsion      ENuc            ....   1312.8419860030 Eh

Convergence Acceleration:
 AO-DIIS                CNVDIIS         .... on
   Start iteration      DIISMaxIt       ....    12
   Startup error        DIISStart       ....  0.200000
   # of expansion vecs  DIISMaxEq       ....     5
   Bias factor          DIISBfac        ....   1.050
   Max. coefficient     DIISMaxC        ....  10.000
 MO-DIIS                CNVKDIIS        .... off
 Trust-Rad. Augm. Hess. CNVTRAH         .... auto
   Auto Start mean grad. ratio tolernc. ....  1.125000
   Auto Start start iteration           ....    50
   Auto Start num. interpolation iter.  ....    10
   Max. Number of Micro iterations      ....    24
   Max. Number of Macro iterations      .... Maxiter - #DIIS iter
   Number of Davidson start vectors     ....     2
   Converg. threshold    (grad. norm)   ....   1.000e-05
   Grad. Scal. Fac. for Micro threshold ....   0.100
   Minimum threshold for Micro iter.    ....   1.000e-02
   NR start threshold (gradient norm)   ....   1.000e-04
   Initial trust radius                 ....   0.400
   Minimum AH scaling param. (alpha)    ....   1.000
   Maximum AH scaling param. (alpha)    .... 1000.000
   Quad. conv. algorithm                .... NR
   White noise on init. David. guess    .... on
   Maximum white noise                  ....   0.010
   Pseudo random numbers                .... off
   Inactive MOs                         .... canonical
   Orbital update algorithm             .... Taylor
   Preconditioner                       .... Diag
   Full preconditioner red. dimension   ....   250
 SOSCF                  CNVSOSCF        .... on
   Start iteration      SOSCFMaxIt      ....   150
   Startup grad/error   SOSCFStart      ....  0.003300
   Hessian update       SOSCFHessUp     .... L-BFGS
 Level Shifting         CNVShift        .... on
   Level shift para.    LevelShift      ....    0.2500
   Turn off err/grad.   ShiftErr        ....    0.0010
 Zerner damping         CNVZerner       .... off
 Static damping         CNVDamp         .... on
   Fraction old density DampFac         ....    0.7000
   Max. Damping (<1)    DampMax         ....    0.9800
   Min. Damping (>=0)   DampMin         ....    0.0000
   Turn off err/grad.   DampErr         ....    0.1000

SCF Procedure:
 Maximum # iterations   MaxIter         ....   125
 SCF integral mode      SCFMode         .... Direct
   Integral package                     .... SHARK and LIBINT hybrid scheme
 Reset frequency        DirectResetFreq ....    20
 Integral Threshold     Thresh          ....  2.500e-11 Eh
 Primitive CutOff       TCut            ....  2.500e-12 Eh

Convergence Tolerance:
 Convergence Check Mode ConvCheckMode   .... Total+1el-Energy
 Convergence forced     ConvForced      .... 0
 Energy Change          TolE            ....  1.000e-08 Eh
 1-El. energy change                    ....  1.000e-05 Eh
 Orbital Gradient       TolG            ....  1.000e-05
 Orbital Rotation angle TolX            ....  1.000e-05
 DIIS Error             TolErr          ....  5.000e-07

------------------------------
INITIAL GUESS: MODEL POTENTIAL
------------------------------
Loading Hartree-Fock densities                     ... done
Calculating cut-offs                               ... done
Initializing the effective Hamiltonian             ... done
Setting up the integral package (SHARK)            ... done
Starting the Coulomb interaction                   ... done (   0.1 sec)
Making the grid                                    ... done (   0.2 sec)
Mapping shells                                     ... done
Starting the XC term evaluation                    ... done (   0.1 sec)
  promolecular density results
     # of electrons  =    133.983570687
     EX              =   -110.978978903
     EC              =     -4.556840569
     EX+EC           =   -115.535819471
Transforming the Hamiltonian                       ... done (   0.0 sec)
Diagonalizing the Hamiltonian                      ... done (   0.0 sec)
Back transforming the eigenvectors                 ... done (   0.0 sec)
Now organizing SCF variables                       ... done
                      ------------------
                      INITIAL GUESS DONE (   0.5 sec)
                      ------------------
             **** ENERGY FILE WAS UPDATED (Dexketoprofen\Dexketoprofen_B3LYP_STO-3G\Dexketoprofen_B3LYP_STO-3G.orcainp.en.tmp) ****
Finished Guess after   0.5 sec
Maximum memory used throughout the entire GUESS-calculation: 23.6 MB

-------------------------------------------------------------------------------------------
                                      ORCA LEAN-SCF
                              memory conserving SCF solver
-------------------------------------------------------------------------------------------

--------------------
CPCM SOLVATION MODEL
--------------------
CPCM parameters:
  Epsilon                                         ...      80.1510
  Refrac                                          ...       1.3328
  Rsolv                                           ...       1.3000
  Surface type                                    ... GAUSSIAN VDW
  Discretization scheme                           ... Constant charge density
    Threshold for H atoms                         ...       5.0000 (charges/Ang^2)
    Threshold for non-H atoms                     ...       5.0000 (charges/Ang^2)
  Epsilon function type                           ...         CPCM
Solvent:                                          ... WATER
Radii:
  Scheme                                          ... Element-dependent radii
  Radius for H  used is    2.4944 Bohr (=   1.3200 Ang.)
  Radius for C  used is    3.8550 Bohr (=   2.0400 Ang.)
  Radius for O  used is    3.4469 Bohr (=   1.8240 Ang.)
Calculating surface                               ...        done! (  0.0s)
Cavity surface points                             ...         2957
Cavity Volume                                     ...    2100.0638
Cavity Surface-area                               ...    1086.2172
Calculating surface distance matrix               ...        done! (  0.0s)
Performing Cholesky decomposition & store         ...        done! (  0.2s)
Overall time for CPCM initialization              ...                 0.2s

----------------------------------------D-I-I-S--------------------------------------------
Iteration    Energy (Eh)           Delta-E    RMSDP     MaxDP     DIISErr   Damp  Time(sec)
-------------------------------------------------------------------------------------------
               ***  Starting incremental Fock matrix formation  ***
    1    -832.4196293760032859     0.00e+00  5.33e-03  1.13e-01  2.09e-01  0.700   3.2
    2    -832.5029392046762950    -8.33e-02  3.63e-03  7.77e-02  9.39e-02  0.700   1.8
                               ***Turning on AO-DIIS***
    3    -832.5340347570613631    -3.11e-02  1.47e-03  2.92e-02  5.23e-02  0.700   1.7
    4    -832.5534335911111157    -1.94e-02  2.48e-03  5.20e-02  3.08e-02  0.000   1.7
    5    -832.5964539110009355    -4.30e-02  4.25e-04  6.84e-03  6.33e-03  0.000   1.7
                              *** Initializing SOSCF ***
---------------------------------------S-O-S-C-F--------------------------------------
Iteration    Energy (Eh)           Delta-E    RMSDP     MaxDP     MaxGrad    Time(sec)
--------------------------------------------------------------------------------------
    6    -832.5967281383527734    -2.74e-04  1.05e-04  1.88e-03  1.82e-03     1.6
               *** Restarting incremental Fock matrix formation ***
    7    -832.5967322342107764    -4.10e-06  6.57e-05  1.74e-03  2.06e-04     3.2
    8    -832.5967329688091922    -7.35e-07  3.23e-05  8.56e-04  2.79e-04     2.1
    9    -832.5967340607935512    -1.09e-06  2.05e-05  4.26e-04  1.48e-04     1.9
   10    -832.5967340641009287    -3.31e-09  1.11e-05  2.98e-04  1.45e-04     1.8
                 **** Energy Check signals convergence ****

               *****************************************************
               *                     SUCCESS                       *
               *           SCF CONVERGED AFTER  10 CYCLES          *
               *****************************************************

Recomputing exchange energy using gridx3       ... done (    4.466 sec)
Old exchange energy                            :    -22.575772710 Eh
New exchange energy                            :    -22.575565816 Eh
Exchange energy change after final integration :      0.000206894 Eh
Total energy after final integration           :   -832.596527170 Eh
             **** ENERGY FILE WAS UPDATED (Dexketoprofen\Dexketoprofen_B3LYP_STO-3G\Dexketoprofen_B3LYP_STO-3G.orcainp.en.tmp) ****

----------------
TOTAL SCF ENERGY
----------------

Total Energy       :       -832.59652717015410 Eh          -22656.10332 eV

Components:
Nuclear Repulsion  :       1312.84198600301079 Eh           35724.24662 eV
Electronic Energy  :      -2145.42689702718826 Eh          -58380.03385 eV
One Electron Energy:      -3744.04970434482220 Eh         -101880.77197 eV
Two Electron Energy:       1598.62280731763394 Eh           43500.73812 eV
CPCM Dielectric    :         -0.01182303992331 Eh              -0.32172 eV

Virial components:
Potential Energy   :      -1652.55759380357858 Eh          -44968.37828 eV
Kinetic Energy     :        819.96106663342437 Eh           22312.27496 eV
Virial Ratio       :          2.01540982986986

DFT components:
N(Alpha)           :       66.999977581182 electrons
N(Beta)            :       66.999977581182 electrons
N(Total)           :      133.999955162364 electrons
E(X)               :      -89.442766018390 Eh       
E(C)               :       -5.366225997203 Eh       
E(XC)              :      -94.808992015593 Eh       

CPCM Solvation Model Properties:
Surface-charge          :         -0.01074294593608
Corrected charge        :         -0.00000000000000
Outlying charge corr.   :          0.00000641122982 Eh               0.00017 eV
Free-energy (cav+disp)  :  This term is not implemented in the current solvation scheme

---------------
SCF CONVERGENCE
---------------

  Last Energy change         ...    3.3074e-09  Tolerance :   1.0000e-08
  Last MAX-Density change    ...    2.9846e-04  Tolerance :   1.0000e-07
  Last RMS-Density change    ...    1.1080e-05  Tolerance :   5.0000e-09
  Last DIIS Error            ...    1.8170e-03  Tolerance :   5.0000e-07
  Last Orbital Gradient      ...    1.4505e-04  Tolerance :   1.0000e-05
  Last Orbital Rotation      ...    1.9053e-04  Tolerance :   1.0000e-05


----------------
ORBITAL ENERGIES
----------------

  NO   OCC          E(Eh)            E(eV) 
   0   2.0000     -18.926315      -515.0112 
   1   2.0000     -18.883945      -513.8583 
   2   2.0000     -18.856758      -513.1185 
   3   2.0000     -10.110931      -275.1324 
   4   2.0000     -10.085073      -274.4288 
   5   2.0000     -10.033834      -273.0345 
   6   2.0000     -10.021139      -272.6891 
   7   2.0000     -10.018025      -272.6043 
   8   2.0000     -10.017247      -272.5831 
   9   2.0000     -10.011453      -272.4255 
  10   2.0000     -10.011015      -272.4136 
  11   2.0000     -10.010906      -272.4106 
  12   2.0000     -10.010657      -272.4038 
  13   2.0000     -10.010588      -272.4020 
  14   2.0000     -10.010231      -272.3922 
  15   2.0000     -10.009743      -272.3789 
  16   2.0000     -10.008492      -272.3449 
  17   2.0000     -10.008204      -272.3371 
  18   2.0000     -10.005937      -272.2754 
  19   2.0000      -1.030482       -28.0408 
  20   2.0000      -0.992028       -26.9945 
  21   2.0000      -0.947859       -25.7926 
  22   2.0000      -0.822532       -22.3822 
  23   2.0000      -0.814589       -22.1661 
  24   2.0000      -0.760222       -20.6867 
  25   2.0000      -0.727105       -19.7855 
  26   2.0000      -0.708018       -19.2662 
  27   2.0000      -0.703468       -19.1424 
  28   2.0000      -0.690350       -18.7854 
  29   2.0000      -0.615580       -16.7508 
  30   2.0000      -0.603375       -16.4187 
  31   2.0000      -0.573955       -15.6181 
  32   2.0000      -0.566449       -15.4139 
  33   2.0000      -0.555375       -15.1125 
  34   2.0000      -0.534237       -14.5373 
  35   2.0000      -0.507151       -13.8003 
  36   2.0000      -0.487055       -13.2534 
  37   2.0000      -0.460224       -12.5233 
  38   2.0000      -0.452238       -12.3060 
  39   2.0000      -0.428979       -11.6731 
  40   2.0000      -0.422148       -11.4872 
  41   2.0000      -0.406557       -11.0630 
  42   2.0000      -0.402277       -10.9465 
  43   2.0000      -0.388944       -10.5837 
  44   2.0000      -0.385346       -10.4858 
  45   2.0000      -0.382127       -10.3982 
  46   2.0000      -0.370957       -10.0943 
  47   2.0000      -0.350097        -9.5266 
  48   2.0000      -0.346549        -9.4301 
  49   2.0000      -0.341091        -9.2815 
  50   2.0000      -0.338732        -9.2174 
  51   2.0000      -0.325938        -8.8692 
  52   2.0000      -0.320611        -8.7243 
  53   2.0000      -0.314303        -8.5526 
  54   2.0000      -0.306178        -8.3315 
  55   2.0000      -0.301341        -8.1999 
  56   2.0000      -0.293216        -7.9788 
  57   2.0000      -0.288212        -7.8426 
  58   2.0000      -0.280984        -7.6460 
  59   2.0000      -0.248950        -6.7743 
  60   2.0000      -0.203656        -5.5418 
  61   2.0000      -0.200769        -5.4632 
  62   2.0000      -0.199986        -5.4419 
  63   2.0000      -0.191882        -5.2214 
  64   2.0000      -0.182686        -4.9711 
  65   2.0000      -0.145670        -3.9639 
  66   2.0000      -0.144177        -3.9233 
  67   0.0000       0.031337         0.8527 
  68   0.0000       0.079543         2.1645 
  69   0.0000       0.081307         2.2125 
  70   0.0000       0.087685         2.3860 
  71   0.0000       0.122656         3.3376 
  72   0.0000       0.148257         4.0343 
  73   0.0000       0.241271         6.5653 
  74   0.0000       0.268788         7.3141 
  75   0.0000       0.319695         8.6993 
  76   0.0000       0.328557         8.9405 
  77   0.0000       0.345107         9.3908 
*Only the first 10 virtual orbitals were printed.

                    ********************************
                    * MULLIKEN POPULATION ANALYSIS *
                    ********************************

-----------------------
MULLIKEN ATOMIC CHARGES
-----------------------
   0 H :    0.097282
   1 C :   -0.088764
   2 C :   -0.220040
   3 C :    0.242587
   4 O :   -0.264225
   5 O :   -0.248077
   6 C :   -0.012857
   7 C :   -0.080821
   8 C :   -0.025042
   9 C :   -0.078114
  10 C :   -0.082860
  11 C :   -0.084893
  12 C :    0.151540
  13 O :   -0.201782
  14 C :   -0.026099
  15 C :   -0.080366
  16 C :   -0.083322
  17 C :   -0.080551
  18 C :   -0.083898
  19 C :   -0.077277
  20 H :    0.083054
  21 H :    0.081820
  22 H :    0.080411
  23 H :    0.251939
  24 H :    0.093030
  25 H :    0.093314
  26 H :    0.092191
  27 H :    0.091892
  28 H :    0.093309
  29 H :    0.090771
  30 H :    0.091488
  31 H :    0.091002
  32 H :    0.093359
Sum of atomic charges:    0.0000000

--------------------------------
MULLIKEN REDUCED ORBITAL CHARGES
--------------------------------
  0 H s       :     0.902718  s :     0.902718

  1 C s       :     3.175773  s :     3.175773
      pz      :     0.962652  p :     2.912992
      px      :     1.013434
      py      :     0.936906

  2 C s       :     3.190809  s :     3.190809
      pz      :     0.967852  p :     3.029231
      px      :     1.042602
      py      :     1.018777

  3 C s       :     3.077393  s :     3.077393
      pz      :     0.896788  p :     2.680020
      px      :     0.947133
      py      :     0.836099

  4 O s       :     3.809697  s :     3.809697
      pz      :     1.554172  p :     4.454527
      px      :     1.689910
      py      :     1.210445

  5 O s       :     3.880801  s :     3.880801
      pz      :     1.670253  p :     4.367277
      px      :     1.419268
      py      :     1.277756

  6 C s       :     3.137949  s :     3.137949
      pz      :     0.990174  p :     2.874909
      px      :     0.951800
      py      :     0.932935

  7 C s       :     3.149931  s :     3.149931
      pz      :     0.994053  p :     2.930890
      px      :     0.993563
      py      :     0.943273

  8 C s       :     3.126367  s :     3.126367
      pz      :     0.998269  p :     2.898675
      px      :     0.957661
      py      :     0.942745

  9 C s       :     3.143521  s :     3.143521
      pz      :     0.980427  p :     2.934593
      px      :     0.960719
      py      :     0.993447

 10 C s       :     3.140580  s :     3.140580
      pz      :     0.994202  p :     2.942280
      px      :     0.996125
      py      :     0.951953

 11 C s       :     3.145258  s :     3.145258
      pz      :     0.990009  p :     2.939636
      px      :     0.966424
      py      :     0.983203

 12 C s       :     3.111778  s :     3.111778
      pz      :     0.914669  p :     2.736682
      px      :     0.946567
      py      :     0.875446

 13 O s       :     3.884347  s :     3.884347
      pz      :     1.411731  p :     4.317434
      px      :     1.478187
      py      :     1.427516

 14 C s       :     3.125449  s :     3.125449
      pz      :     0.956558  p :     2.900649
      px      :     0.963337
      py      :     0.980755

 15 C s       :     3.144264  s :     3.144264
      pz      :     0.960280  p :     2.936102
      px      :     0.991397
      py      :     0.984426

 16 C s       :     3.140953  s :     3.140953
      pz      :     0.988806  p :     2.942369
      px      :     0.964599
      py      :     0.988965

 17 C s       :     3.142562  s :     3.142562
      pz      :     0.983262  p :     2.937989
      px      :     0.983308
      py      :     0.971420

 18 C s       :     3.140679  s :     3.140679
      pz      :     0.959863  p :     2.943220
      px      :     0.991392
      py      :     0.991965

 19 C s       :     3.144915  s :     3.144915
      pz      :     0.992317  p :     2.932363
      px      :     0.963780
      py      :     0.976265

 20 H s       :     0.916946  s :     0.916946

 21 H s       :     0.918180  s :     0.918180

 22 H s       :     0.919589  s :     0.919589

 23 H s       :     0.748061  s :     0.748061

 24 H s       :     0.906970  s :     0.906970

 25 H s       :     0.906686  s :     0.906686

 26 H s       :     0.907809  s :     0.907809

 27 H s       :     0.908108  s :     0.908108

 28 H s       :     0.906691  s :     0.906691

 29 H s       :     0.909229  s :     0.909229

 30 H s       :     0.908512  s :     0.908512

 31 H s       :     0.908998  s :     0.908998

 32 H s       :     0.906641  s :     0.906641



                     *******************************
                     * LOEWDIN POPULATION ANALYSIS *
                     *******************************

----------------------
LOEWDIN ATOMIC CHARGES
----------------------
   0 H :    0.057118
   1 C :   -0.051762
   2 C :   -0.118547
   3 C :    0.157151
   4 O :   -0.154257
   5 O :   -0.196642
   6 C :   -0.005407
   7 C :   -0.047297
   8 C :   -0.028573
   9 C :   -0.040756
  10 C :   -0.044506
  11 C :   -0.048340
  12 C :    0.111235
  13 O :   -0.143030
  14 C :   -0.029975
  15 C :   -0.042259
  16 C :   -0.045294
  17 C :   -0.040018
  18 C :   -0.045595
  19 C :   -0.039625
  20 H :    0.047005
  21 H :    0.045910
  22 H :    0.044809
  23 H :    0.184838
  24 H :    0.053526
  25 H :    0.053397
  26 H :    0.052578
  27 H :    0.052550
  28 H :    0.053545
  29 H :    0.051389
  30 H :    0.051862
  31 H :    0.051577
  32 H :    0.053396

-------------------------------
LOEWDIN REDUCED ORBITAL CHARGES
-------------------------------
  0 H s       :     0.942882  s :     0.942882

  1 C s       :     3.033586  s :     3.033586
      pz      :     1.000484  p :     3.018176
      px      :     1.037087
      py      :     0.980605

  2 C s       :     3.012008  s :     3.012008
      pz      :     1.002230  p :     3.106539
      px      :     1.062057
      py      :     1.042252

  3 C s       :     3.041688  s :     3.041688
      pz      :     0.931003  p :     2.801162
      px      :     0.959630
      py      :     0.910529

  4 O s       :     3.662263  s :     3.662263
      pz      :     1.571236  p :     4.491994
      px      :     1.695350
      py      :     1.225409

  5 O s       :     3.766232  s :     3.766232
      pz      :     1.675724  p :     4.430411
      px      :     1.422600
      py      :     1.332087

  6 C s       :     3.032984  s :     3.032984
      pz      :     0.995650  p :     2.972422
      px      :     0.997758
      py      :     0.979015

  7 C s       :     3.029758  s :     3.029758
      pz      :     0.998277  p :     3.017539
      px      :     1.019567
      py      :     0.999694

  8 C s       :     3.026108  s :     3.026108
      pz      :     1.004869  p :     3.002466
      px      :     1.003049
      py      :     0.994548

  9 C s       :     3.021446  s :     3.021446
      pz      :     0.987193  p :     3.019310
      px      :     1.006891
      py      :     1.025226

 10 C s       :     3.017545  s :     3.017545
      pz      :     0.997649  p :     3.026961
      px      :     1.021483
      py      :     1.007829

 11 C s       :     3.023646  s :     3.023646
      pz      :     0.995374  p :     3.024694
      px      :     1.007973
      py      :     1.021347

 12 C s       :     3.043406  s :     3.043406
      pz      :     0.946833  p :     2.845359
      px      :     0.964515
      py      :     0.934012

 13 O s       :     3.770003  s :     3.770003
      pz      :     1.428565  p :     4.373027
      px      :     1.482790
      py      :     1.461672

 14 C s       :     3.025310  s :     3.025310
      pz      :     0.998608  p :     3.004665
      px      :     0.999235
      py      :     1.006821

 15 C s       :     3.021794  s :     3.021794
      pz      :     1.005615  p :     3.020465
      px      :     1.014541
      py      :     1.000309

 16 C s       :     3.018169  s :     3.018169
      pz      :     1.015746  p :     3.027125
      px      :     1.004258
      py      :     1.007121

 17 C s       :     3.018837  s :     3.018837
      pz      :     1.012899  p :     3.021181
      px      :     1.009558
      py      :     0.998725

 18 C s       :     3.017744  s :     3.017744
      pz      :     1.004825  p :     3.027851
      px      :     1.014259
      py      :     1.008767

 19 C s       :     3.022779  s :     3.022779
      pz      :     1.018668  p :     3.016847
      px      :     1.002407
      py      :     0.995771

 20 H s       :     0.952995  s :     0.952995

 21 H s       :     0.954090  s :     0.954090

 22 H s       :     0.955191  s :     0.955191

 23 H s       :     0.815162  s :     0.815162

 24 H s       :     0.946474  s :     0.946474

 25 H s       :     0.946603  s :     0.946603

 26 H s       :     0.947422  s :     0.947422

 27 H s       :     0.947450  s :     0.947450

 28 H s       :     0.946455  s :     0.946455

 29 H s       :     0.948611  s :     0.948611

 30 H s       :     0.948138  s :     0.948138

 31 H s       :     0.948423  s :     0.948423

 32 H s       :     0.946604  s :     0.946604



                      *****************************
                      * MAYER POPULATION ANALYSIS *
                      *****************************

  NA   - Mulliken gross atomic population
  ZA   - Total nuclear charge
  QA   - Mulliken gross atomic charge
  VA   - Mayer's total valence
  BVA  - Mayer's bonded valence
  FA   - Mayer's free valence

  ATOM       NA         ZA         QA         VA         BVA        FA
  0 H      0.9027     1.0000     0.0973     0.9905     0.9905    -0.0000
  1 C      6.0888     6.0000    -0.0888     3.9612     3.9612     0.0000
  2 C      6.2200     6.0000    -0.2200     3.9546     3.9546    -0.0000
  3 C      5.7574     6.0000     0.2426     3.9144     3.9144    -0.0000
  4 O      8.2642     8.0000    -0.2642     2.2792     2.2792     0.0000
  5 O      8.2481     8.0000    -0.2481     2.2482     2.2482    -0.0000
  6 C      6.0129     6.0000    -0.0129     3.9731     3.9731    -0.0000
  7 C      6.0808     6.0000    -0.0808     3.9682     3.9682     0.0000
  8 C      6.0250     6.0000    -0.0250     3.9779     3.9779     0.0000
  9 C      6.0781     6.0000    -0.0781     3.9706     3.9706     0.0000
 10 C      6.0829     6.0000    -0.0829     3.9724     3.9724    -0.0000
 11 C      6.0849     6.0000    -0.0849     3.9709     3.9709    -0.0000
 12 C      5.8485     6.0000     0.1515     3.9283     3.9283     0.0000
 13 O      8.2018     8.0000    -0.2018     2.1898     2.1898     0.0000
 14 C      6.0261     6.0000    -0.0261     3.9779     3.9779     0.0000
 15 C      6.0804     6.0000    -0.0804     3.9709     3.9709    -0.0000
 16 C      6.0833     6.0000    -0.0833     3.9723     3.9723    -0.0000
 17 C      6.0806     6.0000    -0.0806     3.9723     3.9723     0.0000
 18 C      6.0839     6.0000    -0.0839     3.9724     3.9724    -0.0000
 19 C      6.0773     6.0000    -0.0773     3.9702     3.9702    -0.0000
 20 H      0.9169     1.0000     0.0831     0.9931     0.9931    -0.0000
 21 H      0.9182     1.0000     0.0818     0.9933     0.9933    -0.0000
 22 H      0.9196     1.0000     0.0804     0.9935     0.9935    -0.0000
 23 H      0.7481     1.0000     0.2519     0.9365     0.9365    -0.0000
 24 H      0.9070     1.0000     0.0930     0.9913     0.9913     0.0000
 25 H      0.9067     1.0000     0.0933     0.9913     0.9913     0.0000
 26 H      0.9078     1.0000     0.0922     0.9915     0.9915     0.0000
 27 H      0.9081     1.0000     0.0919     0.9916     0.9916     0.0000
 28 H      0.9067     1.0000     0.0933     0.9913     0.9913    -0.0000
 29 H      0.9092     1.0000     0.0908     0.9918     0.9918    -0.0000
 30 H      0.9085     1.0000     0.0915     0.9916     0.9916    -0.0000
 31 H      0.9090     1.0000     0.0910     0.9917     0.9917    -0.0000
 32 H      0.9066     1.0000     0.0934     0.9913     0.9913    -0.0000

  Mayer bond orders larger than 0.100000
B(  0-H ,  1-C ) :   0.9451 B(  1-C ,  2-C ) :   0.9840 B(  1-C ,  3-C ) :   0.8971 
B(  1-C ,  6-C ) :   0.9832 B(  2-C , 20-H ) :   0.9745 B(  2-C , 21-H ) :   0.9767 
B(  2-C , 22-H ) :   0.9763 B(  3-C ,  4-O ) :   1.0882 B(  3-C ,  5-O ) :   1.8747 
B(  4-O ,  5-O ) :   0.2390 B(  4-O , 23-H ) :   0.8810 B(  6-C ,  7-C ) :   1.4082 
B(  6-C ,  9-C ) :   0.1079 B(  6-C , 11-C ) :   1.3950 B(  7-C ,  8-C ) :   1.3910 
B(  7-C , 10-C ) :   0.1089 B(  7-C , 24-H ) :   0.9571 B(  8-C ,  9-C ) :   1.3893 
B(  8-C , 11-C ) :   0.1054 B(  8-C , 12-C ) :   0.9789 B(  9-C , 10-C ) :   1.4371 
B(  9-C , 25-H ) :   0.9583 B( 10-C , 11-C ) :   1.4341 B( 10-C , 26-H ) :   0.9616 
B( 11-C , 27-H ) :   0.9598 B( 12-C , 13-O ) :   1.8944 B( 12-C , 14-C ) :   0.9835 
B( 14-C , 15-C ) :   1.3883 B( 14-C , 17-C ) :   0.1067 B( 14-C , 19-C ) :   1.3868 
B( 15-C , 16-C ) :   1.4396 B( 15-C , 18-C ) :   0.1115 B( 15-C , 28-H ) :   0.9590 
B( 16-C , 17-C ) :   1.4290 B( 16-C , 19-C ) :   0.1126 B( 16-C , 29-H ) :   0.9621 
B( 17-C , 18-C ) :   1.4267 B( 17-C , 30-H ) :   0.9622 B( 18-C , 19-C ) :   1.4431 
B( 18-C , 31-H ) :   0.9620 B( 19-C , 32-H ) :   0.9582 

-------
TIMINGS
-------

Total SCF time: 0 days 0 hours 0 min 25 sec 

Total time                  ....      25.348 sec
Sum of individual times     ....      25.296 sec  ( 99.8%)

SCF preparation             ....       0.288 sec  (  1.1%)
Fock matrix formation       ....      24.909 sec  ( 98.3%)
  Startup                   ....       0.009 sec  (  0.0% of F)
  Split-RI-J                ....       2.353 sec  (  9.4% of F)
  Chain of spheres X        ....      15.534 sec  ( 62.4% of F)
  XC integration            ....       2.718 sec  ( 10.9% of F)
    Basis function eval.    ....       1.240 sec  ( 45.6% of XC)
    Density eval.           ....       0.447 sec  ( 16.4% of XC)
    XC-Functional eval.     ....       0.297 sec  ( 10.9% of XC)
    XC-Potential eval.      ....       0.388 sec  ( 14.3% of XC)
  CPCM terms                ....       4.243 sec  ( 17.0% of F)
Diagonalization             ....       0.000 sec  (  0.0%)
Density matrix formation    ....       0.024 sec  (  0.1%)
Total Energy calculation    ....       0.011 sec  (  0.0%)
Population analysis         ....       0.009 sec  (  0.0%)
Orbital Transformation      ....       0.008 sec  (  0.0%)
Orbital Orthonormalization  ....       0.000 sec  (  0.0%)
DIIS solution               ....       0.032 sec  (  0.1%)
SOSCF solution              ....       0.015 sec  (  0.1%)
Finished LeanSCF after  25.4 sec

Maximum memory used throughout the entire LEANSCF-calculation: 74.9 MB

-------------------------   --------------------
FINAL SINGLE POINT ENERGY      -832.596527170154
-------------------------   --------------------

------------------------------------------------------------------------------
                         ORCA SCF GRADIENT CALCULATION
------------------------------------------------------------------------------

Nuc. rep. gradient        (SHARK) ... done (  0.0 sec)
HCore & Overlap gradient  (SHARK) ... done (  0.1 sec)
Split-RIJ-J gradient      (SHARK) ... done (  0.8 sec)
COSX-gradient                     ... done ( 12.0 sec)
XC gradient                       ... done (  3.5 sec)
CPCM gradient                     ... done (  0.7 sec)

------------------
CARTESIAN GRADIENT
------------------

   1   H   :    0.007483982    0.003858289   -0.001428362
   2   C   :    0.018602895    0.014568211    0.019457974
   3   C   :    0.001029835   -0.013597895    0.018403052
   4   C   :    0.007863217    0.026250616    0.015715354
   5   O   :   -0.036393358   -0.034864073   -0.064130035
   6   O   :   -0.002143868   -0.057086124   -0.003123686
   7   C   :    0.003996592    0.004115835   -0.005556021
   8   C   :   -0.002671895   -0.004888492   -0.000039778
   9   C   :   -0.002621569   -0.021310345   -0.005281239
  10   C   :   -0.009208617    0.002774806    0.003715285
  11   C   :   -0.004471784    0.001280617    0.003183590
  12   C   :   -0.006536737   -0.004409645    0.002445581
  13   C   :    0.003891491   -0.014103255   -0.009829533
  14   O   :   -0.010779466    0.060903007    0.041263866
  15   C   :    0.007892764   -0.009928442   -0.012785524
  16   C   :    0.001898473   -0.005112701   -0.007613449
  17   C   :   -0.002681821   -0.002732874   -0.004964778
  18   C   :    0.005557521    0.000016516   -0.006359225
  19   C   :    0.002905762    0.005600065    0.003571774
  20   C   :    0.007893060    0.005759622   -0.000739743
  21   H   :    0.002634030   -0.003430274   -0.002870031
  22   H   :    0.002385552    0.003702876    0.001858722
  23   H   :   -0.004274132    0.001566720    0.000051567
  24   H   :    0.009666628    0.043789749    0.019572918
  25   H   :    0.007115991   -0.001218419   -0.004408572
  26   H   :   -0.000979811    0.008570967   -0.000822628
  27   H   :   -0.008396871    0.000311903    0.002561712
  28   H   :   -0.002356411   -0.007509308    0.000321838
  29   H   :   -0.008425834   -0.006912418    0.002978045
  30   H   :   -0.001435034   -0.005118502   -0.007403576
  31   H   :    0.006692324    0.000277794   -0.007056255
  32   H   :    0.007248565    0.005762572    0.000757387
  33   H   :   -0.001381472    0.003112602    0.008553771

Difference to translation invariance:
           :    0.0000000001    0.0000000000   -0.0000000000

Difference to rotation invariance:
           :   -0.0001818834    0.0000584780    0.0000461679

Norm of the Cartesian gradient     ...    0.1516083573
RMS gradient                       ...    0.0152372132
MAX gradient                       ...    0.0641300354

-------
TIMINGS
-------

[...]
      py      :     0.987553

 17 C s       :     3.154228  s :     3.154228
      pz      :     0.977844  p :     2.923722
      px      :     0.977977
      py      :     0.967901

 18 C s       :     3.150939  s :     3.150939
      pz      :     0.955651  p :     2.931664
      px      :     0.986744
      py      :     0.989269

 19 C s       :     3.155355  s :     3.155355
      pz      :     0.987244  p :     2.922122
      px      :     0.960077
      py      :     0.974800

 20 H s       :     0.915558  s :     0.915558

 21 H s       :     0.917242  s :     0.917242

 22 H s       :     0.918205  s :     0.918205

 23 H s       :     0.781159  s :     0.781159

 24 H s       :     0.907705  s :     0.907705

 25 H s       :     0.908070  s :     0.908070

 26 H s       :     0.908380  s :     0.908380

 27 H s       :     0.908887  s :     0.908887

 28 H s       :     0.908556  s :     0.908556

 29 H s       :     0.910286  s :     0.910286

 30 H s       :     0.909732  s :     0.909732

 31 H s       :     0.910173  s :     0.910173

 32 H s       :     0.909340  s :     0.909340



                     *******************************
                     * LOEWDIN POPULATION ANALYSIS *
                     *******************************

----------------------
LOEWDIN ATOMIC CHARGES
----------------------
   0 H :    0.053911
   1 C :   -0.040321
   2 C :   -0.116710
   3 C :    0.135674
   4 O :   -0.145035
   5 O :   -0.181220
   6 C :   -0.008524
   7 C :   -0.048366
   8 C :   -0.027201
   9 C :   -0.039914
  10 C :   -0.043610
  11 C :   -0.044453
  12 C :    0.107949
  13 O :   -0.137984
  14 C :   -0.028748
  15 C :   -0.042463
  16 C :   -0.045005
  17 C :   -0.038500
  18 C :   -0.045121
  19 C :   -0.040362
  20 H :    0.048509
  21 H :    0.047020
  22 H :    0.046207
  23 H :    0.164043
  24 H :    0.053634
  25 H :    0.052811
  26 H :    0.052721
  27 H :    0.052399
  28 H :    0.052873
  29 H :    0.051178
  30 H :    0.051539
  31 H :    0.051285
  32 H :    0.051787

-------------------------------
LOEWDIN REDUCED ORBITAL CHARGES
-------------------------------
  0 H s       :     0.946089  s :     0.946089

  1 C s       :     3.062563  s :     3.062563
      pz      :     0.988725  p :     2.977758
      px      :     1.019605
      py      :     0.969427

  2 C s       :     3.021309  s :     3.021309
      pz      :     0.999115  p :     3.095402
      px      :     1.058029
      py      :     1.038257

  3 C s       :     3.103283  s :     3.103283
      pz      :     0.906840  p :     2.761044
      px      :     0.953561
      py      :     0.900643

  4 O s       :     3.739464  s :     3.739464
      pz      :     1.489492  p :     4.405571
      px      :     1.716287
      py      :     1.199791

  5 O s       :     3.783564  s :     3.783564
      pz      :     1.690553  p :     4.397656
      px      :     1.396652
      py      :     1.310452

  6 C s       :     3.045772  s :     3.045772
      pz      :     0.996864  p :     2.962752
      px      :     0.993244
      py      :     0.972644

  7 C s       :     3.038672  s :     3.038672
      pz      :     0.998202  p :     3.009694
      px      :     1.016345
      py      :     0.995147

  8 C s       :     3.051440  s :     3.051440
      pz      :     1.001072  p :     2.975761
      px      :     0.993084
      py      :     0.981604

  9 C s       :     3.034011  s :     3.034011
      pz      :     0.984683  p :     3.005903
      px      :     1.002727
      py      :     1.018493

 10 C s       :     3.028598  s :     3.028598
      pz      :     0.998218  p :     3.015012
      px      :     1.016251
      py      :     1.000543

 11 C s       :     3.034687  s :     3.034687
      pz      :     0.991555  p :     3.009766
      px      :     1.002776
      py      :     1.015435

 12 C s       :     3.089822  s :     3.089822
      pz      :     0.931280  p :     2.802229
      px      :     0.951860
      py      :     0.919089

 13 O s       :     3.791787  s :     3.791787
      pz      :     1.403420  p :     4.346198
      px      :     1.513392
      py      :     1.429385

 14 C s       :     3.051253  s :     3.051253
      pz      :     0.988144  p :     2.977495
      px      :     0.988238
      py      :     1.001114

 15 C s       :     3.034136  s :     3.034136
      pz      :     0.998536  p :     3.008328
      px      :     1.011316
      py      :     0.998475

 16 C s       :     3.029291  s :     3.029291
      pz      :     1.010775  p :     3.015715
      px      :     0.999726
      py      :     1.005214

 17 C s       :     3.031718  s :     3.031718
      pz      :     1.007127  p :     3.006782
      px      :     1.005181
      py      :     0.994475

 18 C s       :     3.029049  s :     3.029049
      pz      :     0.999564  p :     3.016072
      px      :     1.010626
      py      :     1.005882

 19 C s       :     3.034294  s :     3.034294
      pz      :     1.012767  p :     3.006068
      px      :     0.999620
      py      :     0.993681

 20 H s       :     0.951491  s :     0.951491

 21 H s       :     0.952980  s :     0.952980

 22 H s       :     0.953793  s :     0.953793

 23 H s       :     0.835957  s :     0.835957

 24 H s       :     0.946366  s :     0.946366

 25 H s       :     0.947189  s :     0.947189

 26 H s       :     0.947279  s :     0.947279

 27 H s       :     0.947601  s :     0.947601

 28 H s       :     0.947127  s :     0.947127

 29 H s       :     0.948822  s :     0.948822

 30 H s       :     0.948461  s :     0.948461

 31 H s       :     0.948715  s :     0.948715

 32 H s       :     0.948213  s :     0.948213



                      *****************************
                      * MAYER POPULATION ANALYSIS *
                      *****************************

  NA   - Mulliken gross atomic population
  ZA   - Total nuclear charge
  QA   - Mulliken gross atomic charge
  VA   - Mayer's total valence
  BVA  - Mayer's bonded valence
  FA   - Mayer's free valence

  ATOM       NA         ZA         QA         VA         BVA        FA
  0 H      0.9064     1.0000     0.0936     0.9912     0.9912     0.0000
  1 C      6.0777     6.0000    -0.0777     3.9491     3.9491     0.0000
  2 C      6.2177     6.0000    -0.2177     3.9516     3.9516    -0.0000
  3 C      5.7921     6.0000     0.2079     3.8961     3.8961     0.0000
  4 O      8.2305     8.0000    -0.2305     2.2746     2.2746     0.0000
  5 O      8.2310     8.0000    -0.2310     2.2539     2.2539    -0.0000
  6 C      6.0154     6.0000    -0.0154     3.9682     3.9682     0.0000
  7 C      6.0819     6.0000    -0.0819     3.9655     3.9655    -0.0000
  8 C      6.0236     6.0000    -0.0236     3.9681     3.9681     0.0000
  9 C      6.0770     6.0000    -0.0770     3.9668     3.9668     0.0000
 10 C      6.0813     6.0000    -0.0813     3.9687     3.9687    -0.0000
 11 C      6.0805     6.0000    -0.0805     3.9673     3.9673    -0.0000
 12 C      5.8566     6.0000     0.1434     3.9127     3.9127     0.0000
 13 O      8.1902     8.0000    -0.1902     2.2043     2.2043     0.0000
 14 C      6.0248     6.0000    -0.0248     3.9680     3.9680    -0.0000
 15 C      6.0797     6.0000    -0.0797     3.9670     3.9670    -0.0000
 16 C      6.0821     6.0000    -0.0821     3.9687     3.9687    -0.0000
 17 C      6.0780     6.0000    -0.0780     3.9681     3.9681     0.0000
 18 C      6.0826     6.0000    -0.0826     3.9688     3.9688     0.0000
 19 C      6.0775     6.0000    -0.0775     3.9670     3.9670     0.0000
 20 H      0.9156     1.0000     0.0844     0.9929     0.9929     0.0000
 21 H      0.9172     1.0000     0.0828     0.9932     0.9932    -0.0000
 22 H      0.9182     1.0000     0.0818     0.9933     0.9933     0.0000
 23 H      0.7812     1.0000     0.2188     0.9521     0.9521     0.0000
 24 H      0.9077     1.0000     0.0923     0.9915     0.9915    -0.0000
 25 H      0.9081     1.0000     0.0919     0.9915     0.9915    -0.0000
 26 H      0.9084     1.0000     0.0916     0.9916     0.9916     0.0000
 27 H      0.9089     1.0000     0.0911     0.9917     0.9917     0.0000
 28 H      0.9086     1.0000     0.0914     0.9916     0.9916    -0.0000
 29 H      0.9103     1.0000     0.0897     0.9920     0.9920     0.0000
 30 H      0.9097     1.0000     0.0903     0.9919     0.9919     0.0000
 31 H      0.9102     1.0000     0.0898     0.9919     0.9919     0.0000
 32 H      0.9093     1.0000     0.0907     0.9918     0.9918     0.0000

  Mayer bond orders larger than 0.100000
B(  0-H ,  1-C ) :   0.9489 B(  1-C ,  2-C ) :   0.9821 B(  1-C ,  3-C ) :   0.8773 
B(  1-C ,  6-C ) :   0.9781 B(  2-C , 20-H ) :   0.9738 B(  2-C , 21-H ) :   0.9764 
B(  2-C , 22-H ) :   0.9763 B(  3-C ,  4-O ) :   1.0643 B(  3-C ,  5-O ) :   1.9019 
B(  4-O ,  5-O ) :   0.2264 B(  4-O , 23-H ) :   0.9060 B(  6-C ,  7-C ) :   1.4099 
B(  6-C ,  9-C ) :   0.1074 B(  6-C , 11-C ) :   1.3878 B(  7-C ,  8-C ) :   1.3878 
B(  7-C , 10-C ) :   0.1064 B(  7-C , 24-H ) :   0.9552 B(  8-C ,  9-C ) :   1.3901 
B(  8-C , 11-C ) :   0.1074 B(  8-C , 12-C ) :   0.9569 B(  9-C , 10-C ) :   1.4324 
B(  9-C , 25-H ) :   0.9581 B( 10-C , 11-C ) :   1.4357 B( 10-C , 26-H ) :   0.9607 
B( 11-C , 27-H ) :   0.9592 B( 12-C , 13-O ) :   1.9153 B( 12-C , 14-C ) :   0.9613 
B( 14-C , 15-C ) :   1.3886 B( 14-C , 17-C ) :   0.1089 B( 14-C , 19-C ) :   1.3849 
B( 15-C , 16-C ) :   1.4370 B( 15-C , 18-C ) :   0.1106 B( 15-C , 28-H ) :   0.9575 
B( 16-C , 17-C ) :   1.4270 B( 16-C , 19-C ) :   0.1113 B( 16-C , 29-H ) :   0.9613 
B( 17-C , 18-C ) :   1.4215 B( 17-C , 30-H ) :   0.9617 B( 18-C , 19-C ) :   1.4438 
B( 18-C , 31-H ) :   0.9612 B( 19-C , 32-H ) :   0.9580 

-------
TIMINGS
-------

Total SCF time: 0 days 0 hours 0 min 17 sec 

Total time                  ....      17.432 sec
Sum of individual times     ....      17.380 sec  ( 99.7%)

SCF preparation             ....       0.291 sec  (  1.7%)
Fock matrix formation       ....      17.018 sec  ( 97.6%)
  Startup                   ....       0.008 sec  (  0.0% of F)
  Split-RI-J                ....       1.320 sec  (  7.8% of F)
  Chain of spheres X        ....      11.766 sec  ( 69.1% of F)
  XC integration            ....       1.555 sec  (  9.1% of F)
    Basis function eval.    ....       0.716 sec  ( 46.0% of XC)
    Density eval.           ....       0.276 sec  ( 17.7% of XC)
    XC-Functional eval.     ....       0.160 sec  ( 10.3% of XC)
    XC-Potential eval.      ....       0.209 sec  ( 13.4% of XC)
  CPCM terms                ....       2.337 sec  ( 13.7% of F)
Diagonalization             ....       0.000 sec  (  0.0%)
Density matrix formation    ....       0.011 sec  (  0.1%)
Total Energy calculation    ....       0.007 sec  (  0.0%)
Population analysis         ....       0.028 sec  (  0.2%)
Orbital Transformation      ....       0.003 sec  (  0.0%)
Orbital Orthonormalization  ....       0.000 sec  (  0.0%)
DIIS solution               ....       0.003 sec  (  0.0%)
SOSCF solution              ....       0.019 sec  (  0.1%)
Finished LeanSCF after  17.5 sec

Maximum memory used throughout the entire LEANSCF-calculation: 77.9 MB

-------------------------   --------------------
FINAL SINGLE POINT ENERGY      -832.622820195263
-------------------------   --------------------

                                *** OPTIMIZATION RUN DONE ***


------------------------------------------------------------------------------
                              ORCA PROPERTY CALCULATIONS
------------------------------------------------------------------------------

GBWName                                 ... Dexketoprofen\Dexketoprofen_B3LYP_STO-3G\Dexketoprofen_B3LYP_STO-3G.orcainp.gbw
Number of atoms                         ...     33
Number of basis functions               ...    109
Max core memory                         ...   1024 MB

Electric properties:
Dipole moment                           ... YES
Quadrupole moment                       ...  NO
Static polarizability (Dipole/Dipole)   ...  NO
Static polarizability (Dipole/Quad.)    ...  NO
Static polarizability (Quad./Quad.)     ...  NO
Static polarizability (Velocity)        ...  NO

Atomic electric properties:
Dipole moment                           ...  NO
Quadrupole moment                       ...  NO
Static polarizability                   ...  NO

Choice of electric origin               ... Center of mass
Position of electric origin             ...     3.607584    -5.486296     1.509551

General magnetic properties:
Magnetizability                         ...  NO

EPR properties:
g-Tensor (aka g-matrix)                 ...  NO
Zero-Field splitting spin-orbit         ...  NO
Zero-field splitting spin-spin          ...  NO
Hyperfine couplings                     ...  NO (   0 nuclei)
Quadrupole couplings                    ...  NO (   0 nuclei)
Contact density                         ...  NO (   0 nuclei)

NMR properties:
Chemical shifts                         ...  NO (   0 nuclei)
Spin-rotation constants                 ...  NO (   0 nuclei)
Spin-spin couplings                     ...  NO (   0 nuclei,    0 pairs)

Choice of magnetic origin               ... GIAO
Position of magnetic origin             ...     0.000000     0.000000     0.000000

Properties with geometric perturbations:
SCF Hessian                             ...  NO
IR spectrum                             ...  NO
VCD spectrum                            ...  NO
X-ray spectroscopy properties:
SCF XES/XAS/RIXS spectra                ...  NO


-------------
DIPOLE MOMENT
-------------

Method             : SCF
Type of density    : Electron Density
Multiplicity       :   1
Irrep              :   0
Energy             :  -832.6228201952634436 Eh
Relativity type    : 
Basis              : AO
                                X                 Y                 Z
Electronic contribution:      3.064493765      -4.203432850       2.042143658
Nuclear contribution   :     -3.655956711       3.641716706      -1.877629193
                        -----------------------------------------
Total Dipole Moment    :     -0.591462947      -0.561716144       0.164514464
                        -----------------------------------------
Magnitude (a.u.)       :      0.832116850
Magnitude (Debye)      :      2.115072946



--------------------
Rotational spectrum 
--------------------
 
Rotational constants in cm-1:             0.019854             0.006974             0.005761 
Rotational constants in MHz :           595.216509           209.071458           172.704977 

Dipole components along the rotational axes: 
x,y,z [a.u.] :     0.789768     0.161575     0.206347 
x,y,z [Debye]:     2.007430     0.410691     0.524492 

 

Dipole moment calculation done in   0.0 sec 

Maximum memory used throughout the entire PROP-calculation: 9.5 MB

--------------------------------
SUGGESTED CITATIONS FOR THIS RUN
--------------------------------

Below you find a list of papers that are relevant to this ORCA run
We neither can nor want to force you to cite these papers, but we appreciate if you do
You receive ORCA, which is the product of decades of hard work by many enthusiastic individuals, for free
The only thing we kindly ask in return is that you cite our papers,
We deeply appreciate it, if you show your appreciation for ORCA by not just citing the generic ORCA reference.

Please note that relegating all ORCA citations to the supporting information does *not* help us.
SI sections are not indexed - citations you put there will not count into any citation statistics
But we need these citations in order to attract the funding resources that allow us to do what we are doing

Therefore, if you are a happy ORCA user, please consider citing a few of the papers listed below in the main body of your paper

In addition to the list printed below, the program has created the file Dexketoprofen\Dexketoprofen_B3LYP_STO-3G\Dexketoprofen_B3LYP_STO-3G.orcainp.bibtex that contains the list in bibtex format
You can import this file easily into all common literature databanks and citation aid programs


List of essential papers. We consider these as the minimum necessary citations

  1. Neese,F.
     Software update: the ORCA program system, version 5.0
     WIRES Comput. Molec. Sci., 2022 12(1)e1606
     doi.org/10.1002/wcms.1606

List of papers to cite with high priority. The work reported in these papers was absolutely
necessary for this run to complete.
Our perspective: the developers of density functionals and basis sets usually get cited in chemistry papers
Good! But without the algorithms to do something with them, the functionals or basis sets would not do anything.
Hence, in our opinion, the algorithm design and method developments papers are equally worthy of getting cited

  1. Neese,F.
     An improvement of the resolution of the identity approximation for the formation of the Coulomb matrix
     J. Comp. Chem., 2003 24(14)1740-1747
     doi.org/10.1002/jcc.10318
  2. Neese,F.; Wennmohs,F.; Hansen,A.; Becker,U.
     Efficient, approximate and parallel Hartree-Fock and hybrid DFT calculations. A 'chain-of-spheres' algorithm for the Hartree-Fock exchange
     Chem. Phys., 2009 356(1-3)98-109
     doi.org/10.1016/j.chemphys.2008.10.036
  3. Garcia-Rates,M.; Neese,F.
     Effect of the Solute Cavity on the Solvation Energy and its Derivatives within the Framework of the Gaussian Charge Scheme
     J. Comput. Chem., 2020 41 922-939
     doi.org/10.1002/jcc.26139
  4. Helmich-Paris,B.; de Souza,B.; Neese,F.; Izsák,R.
     An improved chain of spheres for exchange algorithm
     J. Chem. Phys., 2021 155 104109
     doi.org/doi: 10.1063/5.0058766.
  5. Neese,F.
     The SHARK Integral Generation and Digestion System
     J. Comp. Chem., 2022  1-16
     doi.org/10.1002/jcc.26942

List of suggested additional citations. These are papers that are important in the 'surrounding' of 
of this run, or papers that preceded the highly important papers. If you like your results we are grateful for a citation.

  1. Izsak,R.; Neese,F.
     An overlap fitted chain of spheres exchange method
     J. Chem. Phys., 2011 135 144105
     doi.org/10.1063/1.3646921
  2. Izsak,R.; Hansen,A.; Neese,F.
     The resolution of identity and chain of spheres approximations for the LPNO-CCSD singles Fock term
     Molec. Phys., 2012 110 2413-2417
     doi.org/10.1080/00268976.2012.687466
  3. Neese,F.
     The ORCA program system
     WIRES Comput. Molec. Sci., 2012 2(1)73-78
     doi.org/10.1002/wcms.81
  4. Izsak,R.; Neese,F.; Klopper,W.
     Robust fitting techniques in the chain of spheres approximation to the Fock exchange: The role of the complementary space
     J. Chem. Phys., 2013 139 
     doi.org/10.1063/1.4819264
  5. Neese,F.
     Software update: the ORCA program system, version 4.0
     WIRES Comput. Molec. Sci., 2018 8(1)1-6
     doi.org/10.1002/wcms.1327
  6. Neese,F.; Wennmohs,F.; Becker,U.; Riplinger,C.
     The ORCA quantum chemistry program package
     J. Chem. Phys., 2020 152 Art. No. L224108
     doi.org/10.1063/5.0004608

List of optional additional citations

  1. Neese,F.
     Approximate second-order SCF convergence for spin unrestricted wavefunctions
     Chem. Phys. Lett., 2000 325(1-3)93-98
     doi.org/10.1016/s0009-2614(00)00662-x

Timings for individual modules:

Sum of individual times          ...      553.180 sec (=   9.220 min)
Startup calculation              ...       24.308 sec (=   0.405 min)   4.4 %
SCF iterations                   ...      302.064 sec (=   5.034 min)  54.6 %
Property calculations            ...        0.071 sec (=   0.001 min)   0.0 %
SCF Gradient evaluation          ...      226.583 sec (=   3.776 min)  41.0 %
Geometry relaxation              ...        0.154 sec (=   0.003 min)   0.0 %
                             ****ORCA TERMINATED NORMALLY****
TOTAL RUN TIME: 0 days 0 hours 9 minutes 14 seconds 504 msec
