
                                 *****************
                                 * O   R   C   A *
                                 *****************

                                            #,                                       
                                            ###                                      
                                            ####                                     
                                            #####                                    
                                            ######                                   
                                           ########,                                 
                                     ,,################,,,,,                         
                               ,,#################################,,                 
                          ,,##########################################,,             
                       ,#########################################, ''#####,          
                    ,#############################################,,   '####,        
                  ,##################################################,,,,####,       
                ,###########''''           ''''###############################       
              ,#####''   ,,,,##########,,,,          '''####'''          '####       
            ,##' ,,,,###########################,,,                        '##       
           ' ,,###''''                  '''############,,,                           
         ,,##''                                '''############,,,,        ,,,,,,###''
      ,#''                                            '''#######################'''  
     '                                                          ''''####''''         
             ,#######,   #######,   ,#######,      ##                                
            ,#'     '#,  ##    ##  ,#'     '#,    #''#        ,####,   ,####,        
            ##       ##  ##   ,#'  ##            #'  '#       #'       #'  '#        
            ##       ##  #######   ##           ,######,      #####,   #    #        
            '#,     ,#'  ##    ##  '#,     ,#' ,#      #,     #,   #   #,  ,#        
             '#######'   ##     ##  '#######'  #'      '#     '####' # '####'        



                #########################################################
                #                        -***-                          #
                #          Department of theory and spectroscopy        #
                #                                                       #
                #                      Frank Neese                      #
                #                                                       #
                #     Directorship, Architecture, Infrastructure        #
                #                    SHARK, DRIVERS                     #
                #        Core code/Algorithms in most modules           #
                #                                                       #
                #        Max Planck Institute fuer Kohlenforschung      #
                #                Kaiser Wilhelm Platz 1                 #
                #                 D-45470 Muelheim/Ruhr                 #
                #                      Germany                          #
                #                                                       #
                #                  All rights reserved                  #
                #                        -***-                          #
                #########################################################


                         Program Version 6.0.0  -   RELEASE   -


 With contributions from (in alphabetic order):
   Daniel Aravena         : Magnetic Suceptibility
   Michael Atanasov       : Ab Initio Ligand Field Theory (pilot matlab implementation)
   Alexander A. Auer      : GIAO ZORA, VPT2 properties, NMR spectrum
   Ute Becker             : All parallelization in ORCA, NUMFREQ, NUMCALC
   Giovanni Bistoni       : ED, misc. LED, open-shell LED, HFLD
   Martin Brehm           : Molecular dynamics
   Dmytro Bykov           : pre 5.0 version of the SCF Hessian
   Marcos Casanova-Páez   : Triplet and SCS-CIS(D). UHF-(DLPNO)-IP/EA/STEOM-CCSD. UHF-CVS-IP/STEOM-CCSD
   Vijay G. Chilkuri      : MRCI spin determinant printing, contributions to CSF-ICE
   Pauline Colinet        : FMM embedding
   Dipayan Datta          : RHF DLPNO-CCSD density
   Achintya Kumar Dutta   : EOM-CC, STEOM-CC
   Nicolas Foglia         : Exact transition moments, OPA infrastructure, MCD improvements
   Dmitry Ganyushin       : Spin-Orbit,Spin-Spin,Magnetic field MRCI
   Miquel Garcia          : C-PCM and meta-GGA Hessian, CCSD/C-PCM, Gaussian charge scheme
   Tiago L. C. Gouveia    : GS-ROHF, GS-ROCIS
   Yang Guo               : DLPNO-NEVPT2, F12-NEVPT2, CIM, IAO-localization
   Andreas Hansen         : Spin unrestricted coupled pair/coupled cluster methods
   Ingolf Harden          : AUTO-CI MPn and infrastructure 
   Benjamin Helmich-Paris : MC-RPA, TRAH-(SCF,CASSCF), AVAS, COSX integrals, SCF dyn. polar.
   Lee Huntington         : MR-EOM, pCC
   Robert Izsak           : Overlap fitted RIJCOSX, COSX-SCS-MP3, EOM
   Riya Kayal             : Wick's Theorem for AUTO-CI, AUTO-CI UHF-CCSDT
   Emily Kempfer          : AUTO-CI, RHF CISDT and CCSDT
   Christian Kollmar      : KDIIS, OOCD, Brueckner-CCSD(T), CCSD density, CASPT2, CASPT2-K, improved NEVPT2
   Axel Koslowski         : Symmetry handling
   Simone Kossmann        : Meta GGA functionals, TD-DFT gradient, OOMP2, (MP2 Hessian; deprecated post 5.0)
   Lucas Lang             : DCDCAS
   Marvin Lechner         : AUTO-CI (C++ implementation), FIC-MRCC
   Spencer Leger          : CASSCF response
   Dagmar Lenk            : GEPOL surface, SMD, ORCA-2-JSON
   Dimitrios Liakos       : Extrapolation schemes; Compound Job, initial MDCI parallelization
   Dimitrios Manganas     : Further ROCIS development; embedding schemes. LFT, Crystal Embedding
   Dimitrios Pantazis     : SARC Basis sets
   Anastasios Papadopoulos: AUTO-CI, single reference methods and gradients
   Taras Petrenko         : pre 6.0 DFT Hessian and TD-DFT gradient, (ASA, deprecated), ECA, 1-Electron XAS/XES, NRVS
   Peter Pinski           : DLPNO-MP2, DLPNO-MP2 Gradient
   Christoph Reimann      : Effective Core Potentials
   Marius Retegan         : Local ZFS, SOC
   Christoph Riplinger    : Optimizer, TS searches, QM/MM, DLPNO-CCSD(T), (RO)-DLPNO pert. Triples
   Michael Roemelt        : Original ROCIS implementation
   Masaaki Saitow         : Open-shell DLPNO-CCSD energy and density
   Barbara Sandhoefer     : DKH picture change effects
   Kantharuban Sivalingam : CASSCF convergence/infrastructure, NEVPT2 and variants, FIC-MRCI
   Bernardo de Souza      : ESD, SOC TD-DFT
   Georgi Stoychev        : AutoAux, RI-MP2 NMR, DLPNO-MP2 response, X2C
   Van Anh Tran           : RI-MP2 g-tensors
   Willem Van den Heuvel  : Paramagnetic NMR
   Zikuan Wang            : NOTCH, Electric field optimization 
   Frank Wennmohs         : Technical directorship and infrastructure
   Hang Xu                : AUTO-CI-Response properties 


 We gratefully acknowledge several colleagues who have allowed us to
 interface, adapt or use parts of their codes:
   Stefan Grimme, W. Hujo, H. Kruse, P. Pracht,  : VdW corrections, initial TS optimization,
                  C. Bannwarth, S. Ehlert,         DFT functionals, gCP, sTDA/sTD-DF
                  L. Wittmann, M. Mueller
   Ed Valeev, F. Pavosevic, A. Kumar             : LibInt (2-el integral package), F12 methods
   Garnet Chan, S. Sharma, J. Yang, R. Olivares  : DMRG
   Ulf Ekstrom                                   : XCFun DFT Library
   Mihaly Kallay                                 : mrcc  (arbitrary order and MRCC methods)
   Frank Weinhold                                : gennbo (NPA and NBO analysis)
   Simon Mueller                                 : openCOSMO-RS
   Christopher J. Cramer and Donald G. Truhlar   : smd solvation model
   Lars Goerigk                                  : TD-DFT with DH, B97 family of functionals
   V. Asgeirsson, H. Jonsson                     : NEB implementation
   FAccTs GmbH                                   : IRC, NEB, NEB-TS, DLPNO-Multilevel, CI-OPT
                                                   MM, QMMM, 2- and 3-layer-ONIOM, Crystal-QMMM,
                                                   LR-CPCM, SF, NACMEs, symmetry and pop. for TD-DFT,
                                                   nearIR, NL-DFT gradient (VV10), updates on ESD,
                                                   ML-optimized integration grids, MBIS, APM,
                                                   GOAT, DOCKER, SOLVATOR, interface openCOSMO-RS
   S Lehtola, MJT Oliveira, MAL Marques          : LibXC Library
   Liviu Ungur et al                             : ANISO software


 Your calculation uses the libint2 library for the computation of 2-el integrals
 For citations please refer to: http://libint.valeyev.net

 Your ORCA version has been built with support for libXC version: 6.2.2
 For citations please refer to: https://libxc.gitlab.io

 This ORCA versions uses:
   CBLAS   interface :  Fast vector & matrix operations
   LAPACKE interface :  Fast linear algebra routines
   Shared memory     :  Shared parallel matrices


Warning: RI is on but no J-basis has been assigned. Assigning Def2/J (nothing to worry about!)
================================================================================

----- Orbital basis set information -----
Your calculation utilizes the basis: STO-3G
   H-Ne       : W. J. Hehre, R. F. Stewart and J. A. Pople, J. Chem. Phys. 2657 (1969).
   Na-Ar      : W. J. Hehre, R. Ditchfield, R. F. Stewart and J. A. Pople, J. Chem. Phys. 2769 (1970).
   K,Ca,Ga-Kr : W. J. Pietro, B. A. Levy, W. J. Hehre and R. F. Stewart, J. Am. Chem. Soc. 19, 2225 (1980).
   Sc-Zn,Y-Cd : W. J. Pietro and W. J. Hehre, J. Comp. Chem. 4, 241 (1983).

----- AuxJ basis set information -----
Your calculation utilizes the auxiliary basis: def2/J
   F. Weigend, Phys. Chem. Chem. Phys. 8, 1057 (2006).

================================================================================
                                        WARNINGS
                       Please study these warnings very carefully!
================================================================================


WARNING: Geometry Optimization
  ===> : Switching off AutoStart
         For restart on a previous wavefunction, please use MOREAD

================================================================================
                                       INPUT FILE
================================================================================
NAME = Dexketoprofen\Dexketoprofen_PBE_STO-3G\Dexketoprofen_PBE_STO-3G.orcainp
|  1> # ORCA input file
|  2> # 
|  3> !PBE STO-3G Opt CPCM(WATER)
|  4> * xyz 0 1
|  5>    H        1.09662        -0.20425         0.32676
|  6>    C        2.13797        -0.11108        -0.01052
|  7>    C        2.12649         0.62804        -1.35353
|  8>    C        2.82666         0.75101         1.05036
|  9>    O        3.42837         0.07530         2.05584
| 10>    O        2.79236         1.97380         1.05318
| 11>    C        2.71761        -1.51246        -0.17817
| 12>    C        1.93400        -2.64563         0.11349
| 13>    C        2.46764        -3.93628        -0.02637
| 14>    C        3.77114        -4.09904        -0.50532
| 15>    C        4.55448        -2.98406        -0.79480
| 16>    C        4.03583        -1.70072        -0.62371
| 17>    C        1.68733        -5.16375         0.28429
| 18>    O        1.87299        -6.17087        -0.39524
| 19>    C        0.70964        -5.21669         1.40278
| 20>    C        0.85415        -4.43205         2.55380
| 21>    C       -0.08941        -4.51477         3.57938
| 22>    C       -1.16344        -5.39791         3.47203
| 23>    C       -1.29213        -6.20776         2.34434
| 24>    C       -0.35568        -6.12155         1.31302
| 25>    H        1.60784         1.58944        -1.26613
| 26>    H        1.61662         0.04215        -2.12585
| 27>    H        3.14163         0.84360        -1.70681
| 28>    H        3.41398        -0.89696         1.96534
| 29>    H        0.90004        -2.51911         0.43007
| 30>    H        4.17798        -5.09810        -0.65507
| 31>    H        5.56968        -3.11822        -1.16231
| 32>    H        4.67199        -0.84709        -0.85704
| 33>    H        1.70284        -3.76706         2.68065
| 34>    H        0.01844        -3.89919         4.46945
| 35>    H       -1.89326        -5.46596         4.27487
| 36>    H       -2.11824        -6.91083         2.26952
| 37>    H       -0.45599        -6.76552         0.44094
| 38> *
| 39> 
| 40>                          ****END OF INPUT****
================================================================================

                       *****************************
                       * Geometry Optimization Run *
                       *****************************

Geometry optimization settings:
Update method            Update   .... BFGS
Choice of coordinates    CoordSys .... (2022) Redundant Internals
Initial Hessian          InHess   .... Almloef's Model
Max. no of cycles        MaxIter  .... 99

Convergence Tolerances:
Energy Change            TolE     ....  5.0000e-06 Eh
Max. Gradient            TolMAXG  ....  3.0000e-04 Eh/bohr
RMS Gradient             TolRMSG  ....  1.0000e-04 Eh/bohr
Max. Displacement        TolMAXD  ....  4.0000e-03 bohr
RMS Displacement         TolRMSD  ....  2.0000e-03 bohr
Strict Convergence                .... False

------------------------------------------------------------------------------
                        ORCA OPTIMIZATION COORDINATE SETUP
------------------------------------------------------------------------------

The optimization will be done in redundant internal coordinates (2022)
Making redundant internal coordinates   ...  (2022 redundants) done
Evaluating the initial hessian          ...  (Almloef) done
Evaluating the coordinates              ...  done
Calculating the B-matrix                .... done
Calculating the G-matrix                .... done
Diagonalizing the G-matrix              .... done
Small eigenvalue found = 3.170e-03
Small eigenvalue found = 1.297e-02
Small eigenvalue found = 1.621e-02
Small eigenvalue found = 2.759e-02
The first mode is                       ....   70
The number of degrees of freedom        ....   93

    -----------------------------------------------------------------
                    Redundant Internal Coordinates


    -----------------------------------------------------------------
         Definition                    Initial Value    Approx d2E/dq
    -----------------------------------------------------------------
      1. B(C   1,H   0)                  1.0986         0.348944   
      2. B(C   2,C   1)                  1.5330         0.369473   
      3. B(C   3,C   1)                  1.5307         0.372652   
      4. B(O   4,C   3)                  1.3526         0.641925   
      5. B(O   5,C   3)                  1.2233         1.032466   
      6. B(C   6,C   1)                  1.5258         0.379434   
      7. B(C   7,C   6)                  1.4083         0.584269   
      8. B(C   8,C   7)                  1.4036         0.594335   
      9. B(C   9,C   8)                  1.3982         0.606230   
     10. B(C  10,C   9)                  1.3931         0.617825   
     11. B(C  11,C  10)                  1.3947         0.614066   
     12. B(C  11,C   6)                  1.4042         0.593137   
     13. B(C  12,C   8)                  1.4873         0.437013   
     14. B(O  13,C  12)                  1.2290         1.010854   
     15. B(C  14,C  12)                  1.4865         0.438298   
     16. B(C  15,C  14)                  1.4005         0.601163   
     17. B(C  16,C  15)                  1.3961         0.611058   
     18. B(C  17,C  16)                  1.3946         0.614253   
     19. B(C  18,C  17)                  1.3943         0.614980   
     20. B(C  19,C  18)                  1.3957         0.611839   
     21. B(C  19,C  14)                  1.4006         0.600891   
     22. B(H  20,C   2)                  1.0959         0.352421   
     23. B(H  21,C   2)                  1.0953         0.353138   
     24. B(H  22,C   2)                  1.0963         0.351916   
     25. B(H  23,O   4)                  0.9766         0.489251   
     26. B(H  24,C   7)                  1.0887         0.361802   
     27. B(H  25,C   9)                  1.0891         0.361338   
     28. B(H  26,C  10)                  1.0880         0.362786   
     29. B(H  27,C  11)                  1.0899         0.360266   
     30. B(H  28,C  15)                  1.0856         0.365937   
     31. B(H  29,C  16)                  1.0876         0.363337   
     32. B(H  30,C  17)                  1.0871         0.363936   
     33. B(H  31,C  18)                  1.0874         0.363602   
     34. B(H  32,C  19)                  1.0887         0.361815   
     35. A(C   2,C   1,C   3)          109.8164         0.362514   
     36. A(C   3,C   1,C   6)          114.9940         0.364166   
     37. A(H   0,C   1,C   2)          107.6234         0.322065   
     38. A(H   0,C   1,C   3)          105.1573         0.322518   
     39. A(H   0,C   1,C   6)          108.4184         0.323473   
     40. A(C   2,C   1,C   6)          110.4516         0.363632   
     41. A(C   1,C   2,H  21)          111.3037         0.322697   
     42. A(H  20,C   2,H  22)          106.9450         0.288815   
     43. A(C   1,C   2,H  20)          110.8947         0.322589   
     44. A(H  20,C   2,H  21)          107.7699         0.288972   
     45. A(H  21,C   2,H  22)          107.9994         0.288907   
     46. A(C   1,C   2,H  22)          111.7273         0.322513   
     47. A(O   4,C   3,O   5)          120.6713         0.472947   
     48. A(C   1,C   3,O   5)          123.5022         0.431297   
     49. A(C   1,C   3,O   4)          115.7213         0.396390   
     50. A(C   3,O   4,H  23)          114.9548         0.368459   
     51. A(C   7,C   6,C  11)          118.6996         0.426065   
     52. A(C   1,C   6,C  11)          120.9747         0.394689   
     53. A(C   1,C   6,C   7)          120.3257         0.393649   
     54. A(C   8,C   7,H  24)          119.7953         0.350675   
     55. A(C   6,C   7,C   8)          120.5118         0.426219   
     56. A(C   6,C   7,H  24)          119.6808         0.349665   
     57. A(C   7,C   8,C   9)          119.7099         0.429047   
     58. A(C   9,C   8,C  12)          117.6836         0.406186   
     59. A(C   7,C   8,C  12)          122.5885         0.404767   
     60. A(C   8,C   9,C  10)          120.1483         0.432043   
     61. A(C  10,C   9,H  25)          119.7093         0.352904   
     62. A(C   8,C   9,H  25)          120.1423         0.351775   
     63. A(C   9,C  10,H  26)          119.7490         0.353143   
     64. A(C  11,C  10,H  26)          120.1254         0.352779   
     65. A(C   9,C  10,C  11)          120.1238         0.433042   
     66. A(C  10,C  11,H  27)          118.5137         0.352363   
     67. A(C   6,C  11,H  27)          120.7236         0.350304   
     68. A(C   6,C  11,C  10)          120.7571         0.429881   
     69. A(O  13,C  12,C  14)          119.0903         0.442405   
     70. A(C   8,C  12,C  14)          122.1150         0.383734   
     71. A(C   8,C  12,O  13)          118.7862         0.442171   
     72. A(C  15,C  14,C  19)          119.5448         0.429245   
     73. A(C  12,C  14,C  19)          118.3624         0.405762   
     74. A(C  12,C  14,C  15)          122.0444         0.405795   
     75. A(C  14,C  15,C  16)          120.0549         0.430540   
     76. A(C  16,C  15,H  28)          118.6088         0.353002   
     77. A(C  14,C  15,H  28)          121.3241         0.352028   
     78. A(C  15,C  16,C  17)          120.0979         0.432209   
     79. A(C  17,C  16,H  29)          119.8540         0.352887   
     80. A(C  15,C  16,H  29)          120.0439         0.352576   
     81. A(C  16,C  17,C  18)          120.0752         0.432706   
     82. A(C  18,C  17,H  30)          119.9317         0.353056   
     83. A(C  16,C  17,H  30)          119.9868         0.352986   
     84. A(C  17,C  18,C  19)          119.9883         0.432400   
     85. A(C  19,C  18,H  31)          119.9232         0.352696   
     86. A(C  17,C  18,H  31)          120.0875         0.353001   
     87. A(C  14,C  19,C  18)          120.1907         0.430604   
     88. A(C  18,C  19,H  32)          119.5736         0.352402   
     89. A(C  14,C  19,H  32)          120.2350         0.351327   
     90. D(H  21,C   2,C   1,C   6)     53.5300         0.010915   
     91. D(H  21,C   2,C   1,H   0)    -64.6524         0.010915   
     92. D(H  20,C   2,C   1,H   0)     55.3150         0.010915   
     93. D(H  21,C   2,C   1,C   3)   -178.6116         0.010915   
     94. D(H  20,C   2,C   1,C   6)    173.4974         0.010915   
     95. D(H  20,C   2,C   1,C   3)    -58.6442         0.010915   
     96. D(O   4,C   3,C   1,C   2)   -151.9883         0.010389   
     97. D(O   4,C   3,C   1,C   6)    -26.6943         0.010389   
     98. D(O   4,C   3,C   1,H   0)     92.4788         0.010389   
     99. D(O   5,C   3,C   1,C   2)     31.7265         0.010389   
    100. D(O   5,C   3,C   1,H   0)    -83.8065         0.010389   
    101. D(H  23,O   4,C   3,C   1)      4.1282         0.030392   
    102. D(H  23,O   4,C   3,O   5)   -179.4731         0.030392   
    103. D(C   7,C   6,C   1,H   0)     -1.0391         0.010745   
    104. D(C   7,C   6,C   1,C   2)   -118.7338         0.010745   
    105. D(C   7,C   6,C   1,C   3)    116.3033         0.010745   
    106. D(C  11,C   6,C   1,C   2)     61.2718         0.010745   
    107. D(C  11,C   6,C   1,H   0)    178.9666         0.010745   
    108. D(H  24,C   7,C   6,C  11)   -178.0886         0.023470   
    109. D(C   8,C   7,C   6,C  11)      0.6435         0.023470   
    110. D(H  24,C   7,C   6,C   1)      1.9169         0.023470   
    111. D(C   8,C   7,C   6,C   1)   -179.3510         0.023470   
    112. D(C  12,C   8,C   7,H  24)     -2.0246         0.024327   
    113. D(C  12,C   8,C   7,C   6)    179.2448         0.024327   
    114. D(C   9,C   8,C   7,H  24)    176.3959         0.024327   
    115. D(C   9,C   8,C   7,C   6)     -2.3348         0.024327   
    116. D(H  25,C   9,C   8,C  12)      0.9930         0.025364   
    117. D(H  25,C   9,C   8,C   7)   -177.5042         0.025364   
    118. D(C  10,C   9,C   8,C  12)   -179.0959         0.025364   
    119. D(C  10,C   9,C   8,C   7)      2.4069         0.025364   
    120. D(C  11,C  10,C   9,C   8)     -0.7943         0.026402   
    121. D(H  26,C  10,C   9,H  25)     -0.4016         0.026402   
    122. D(H  26,C  10,C   9,C   8)    179.6869         0.026402   
    123. D(C  11,C  10,C   9,H  25)    179.1172         0.026402   
    124. D(H  27,C  11,C  10,H  26)     -0.5525         0.026063   
    125. D(H  27,C  11,C  10,C   9)    179.9305         0.026063   
    126. D(C   6,C  11,C  10,H  26)    178.5956         0.026063   
    127. D(C   6,C  11,C  10,C   9)     -0.9213         0.026063   
    128. D(H  27,C  11,C   6,C   7)   -179.8830         0.024224   
    129. D(C  10,C  11,C   6,C   7)      0.9877         0.024224   
    130. D(C  10,C  11,C   6,C   1)   -179.0178         0.024224   
    131. D(H  27,C  11,C   6,C   1)      0.1114         0.024224   
    132. D(C  14,C  12,C   8,C   9)    145.7235         0.013036   
    133. D(C  14,C  12,C   8,C   7)    -35.8257         0.013036   
    134. D(O  13,C  12,C   8,C   9)    -33.2109         0.013036   
    135. D(O  13,C  12,C   8,C   7)    145.2398         0.013036   
    136. D(C  19,C  14,C  12,O  13)    -27.6903         0.013111   
    137. D(C  19,C  14,C  12,C   8)    153.3783         0.013111   
    138. D(C  15,C  14,C  12,O  13)    149.7664         0.013111   
    139. D(C  15,C  14,C  12,C   8)    -29.1649         0.013111   
    140. D(H  28,C  15,C  14,C  19)    176.1303         0.024919   
    141. D(H  28,C  15,C  14,C  12)     -1.2973         0.024919   
    142. D(C  16,C  15,C  14,C  19)     -2.5779         0.024919   
    143. D(C  16,C  15,C  14,C  12)    179.9945         0.024919   
    144. D(H  29,C  16,C  15,H  28)      1.7750         0.025793   
    145. D(H  29,C  16,C  15,C  14)   -179.4820         0.025793   
    146. D(C  17,C  16,C  15,H  28)   -177.4721         0.025793   
    147. D(C  17,C  16,C  15,C  14)      1.2709         0.025793   
    148. D(H  30,C  17,C  16,H  29)      0.3171         0.026079   
    149. D(H  30,C  17,C  16,C  15)    179.5656         0.026079   
    150. D(C  18,C  17,C  16,H  29)   -178.7729         0.026079   
    151. D(C  18,C  17,C  16,C  15)      0.4756         0.026079   
    152. D(C  19,C  18,C  17,C  16)     -0.8972         0.026145   
    153. D(H  31,C  18,C  17,H  30)     -0.3334         0.026145   
    154. D(H  31,C  18,C  17,C  16)    178.7571         0.026145   
    155. D(C  19,C  18,C  17,H  30)   -179.9877         0.026145   
    156. D(H  32,C  19,C  18,H  31)     -0.3833         0.025863   
    157. D(H  32,C  19,C  18,C  17)    179.2716         0.025863   
    158. D(C  14,C  19,C  18,H  31)    179.9174         0.025863   
    159. D(C  14,C  19,C  18,C  17)     -0.4277         0.025863   
    160. D(H  32,C  19,C  14,C  15)   -177.5382         0.024895   
    161. D(H  32,C  19,C  14,C  12)     -0.0161         0.024895   
    162. D(C  18,C  19,C  14,C  15)      2.1591         0.024895   
    163. D(C  18,C  19,C  14,C  12)    179.6813         0.024895   
    -----------------------------------------------------------------

Number of atoms                         .... 33
Number of degrees of freedom            .... 163


         *************************************************************
         *                GEOMETRY OPTIMIZATION CYCLE   1            *
         *************************************************************
---------------------------------
CARTESIAN COORDINATES (ANGSTROEM)
---------------------------------
  H      1.096620   -0.204250    0.326760
  C      2.137970   -0.111080   -0.010520
  C      2.126490    0.628040   -1.353530
  C      2.826660    0.751010    1.050360
  O      3.428370    0.075300    2.055840
  O      2.792360    1.973800    1.053180
  C      2.717610   -1.512460   -0.178170
  C      1.934000   -2.645630    0.113490
  C      2.467640   -3.936280   -0.026370
  C      3.771140   -4.099040   -0.505320
  C      4.554480   -2.984060   -0.794800
  C      4.035830   -1.700720   -0.623710
  C      1.687330   -5.163750    0.284290
  O      1.872990   -6.170870   -0.395240
  C      0.709640   -5.216690    1.402780
  C      0.854150   -4.432050    2.553800
  C     -0.089410   -4.514770    3.579380
  C     -1.163440   -5.397910    3.472030
  C     -1.292130   -6.207760    2.344340
  C     -0.355680   -6.121550    1.313020
  H      1.607840    1.589440   -1.266130
  H      1.616620    0.042150   -2.125850
  H      3.141630    0.843600   -1.706810
  H      3.413980   -0.896960    1.965340
  H      0.900040   -2.519110    0.430070
  H      4.177980   -5.098100   -0.655070
  H      5.569680   -3.118220   -1.162310
  H      4.671990   -0.847090   -0.857040
  H      1.702840   -3.767060    2.680650
  H      0.018440   -3.899190    4.469450
  H     -1.893260   -5.465960    4.274870
  H     -2.118240   -6.910830    2.269520
  H     -0.455990   -6.765520    0.440940

----------------------------
CARTESIAN COORDINATES (A.U.)
----------------------------
  NO LB      ZA    FRAG     MASS         X           Y           Z
   0 H     1.0000    0     1.008    2.072311   -0.385977    0.617487
   1 C     6.0000    0    12.011    4.040178   -0.209911   -0.019880
   2 C     6.0000    0    12.011    4.018484    1.186824   -2.557801
   3 C     6.0000    0    12.011    5.341613    1.419203    1.984893
   4 O     8.0000    0    15.999    6.478680    0.142296    3.884975
   5 O     8.0000    0    15.999    5.276796    3.729941    1.990222
   6 C     6.0000    0    12.011    5.135539   -2.858135   -0.336693
   7 C     6.0000    0    12.011    3.654730   -4.999516    0.214465
   8 C     6.0000    0    12.011    4.663164   -7.438491   -0.049832
   9 C     6.0000    0    12.011    7.126422   -7.746063   -0.954916
  10 C     6.0000    0    12.011    8.606720   -5.639056   -1.501954
  11 C     6.0000    0    12.011    7.626613   -3.213895   -1.178641
  12 C     6.0000    0    12.011    3.188592   -9.758073    0.537230
  13 O     8.0000    0    15.999    3.539438  -11.661254   -0.746895
  14 C     6.0000    0    12.011    1.341025   -9.858115    2.650870
  15 C     6.0000    0    12.011    1.614110   -8.375361    4.825983
  16 C     6.0000    0    12.011   -0.168960   -8.531679    6.764048
  17 C     6.0000    0    12.011   -2.198583  -10.200572    6.561186
  18 C     6.0000    0    12.011   -2.441772  -11.730966    4.430161
  19 C     6.0000    0    12.011   -0.672138  -11.568053    2.481248
  20 H     1.0000    0     1.008    3.038377    3.003606   -2.392639
  21 H     1.0000    0     1.008    3.054969    0.079652   -4.017274
  22 H     1.0000    0     1.008    5.936820    1.594173   -3.225403
  23 H     1.0000    0     1.008    6.451487   -1.695009    3.713954
  24 H     1.0000    0     1.008    1.700829   -4.760428    0.812715
  25 H     1.0000    0     1.008    7.895238   -9.634013   -1.237903
  26 H     1.0000    0     1.008   10.525170   -5.892582   -2.196448
  27 H     1.0000    0     1.008    8.828782   -1.600768   -1.619571
  28 H     1.0000    0     1.008    3.217901   -7.118712    5.065694
  29 H     1.0000    0     1.008    0.034847   -7.368401    8.446036
  30 H     1.0000    0     1.008   -3.577743  -10.329167    8.078334
  31 H     1.0000    0     1.008   -4.002893  -13.059576    4.288771
  32 H     1.0000    0     1.008   -0.861696  -12.784980    0.833256

--------------------------------
INTERNAL COORDINATES (ANGSTROEM)
--------------------------------
 H      0   0   0     0.000000000000     0.00000000     0.00000000
 C      1   0   0     1.098566461258     0.00000000     0.00000000
 C      2   1   0     1.533005552795   107.62340938     0.00000000
 C      2   1   3     1.530672877724   105.15733455   117.03767684
 O      4   2   1     1.352637778047   115.72133848    92.47875254
 O      4   2   1     1.223274223754   123.50219437   276.19352862
 C      2   1   3     1.525763728924   108.41839138   240.51438383
 C      7   2   1     1.408255813622   120.32570271   358.96093587
 C      8   7   2     1.403606031513   120.51177098   180.64899473
 C      9   8   7     1.398211775841   119.70992143   357.66522722
 C     10   9   8     1.393054423345   120.14832190     2.40693947
 C     11  10   9     1.394715442734   120.12384667   359.20570594
 C      9   8   7     1.487304922536   122.58853406   179.24475891
 O     13   9   8     1.229032689110   118.78621433   145.23984250
 C     13   9   8     1.486506057774   122.11502274   324.17428102
 C     15  13   9     1.400496379895   122.04444038   330.83514153
 C     16  15  13     1.396052437554   120.05485425   179.99449155
 C     17  16  15     1.394632827306   120.09787136     1.27089464
 C     18  17  16     1.394310895998   120.07520224     0.47561130
 C     19  18  17     1.395704735609   119.98834559   359.10278352
 H      3   2   1     1.095867940265   110.89471659    55.31497535
 H      3   2   1     1.095313969326   111.30368068   295.34758165
 H      3   2   1     1.096258223048   111.72730933   174.52150211
 H      5   4   2     0.976568906785   114.95483919     4.12821327
 H      8   7   2     1.088716440769   119.68079471     1.91685859
 H     10   9   8     1.089065990517   120.14231725   182.49583062
 H     11  10   9     1.087976813034   119.74898539   179.68694503
 H     12  11  10     1.089874585170   118.51374391   179.93051835
 H     16  15  13     1.085623018686   121.32409245   358.70268205
 H     17  16  15     1.087563774590   120.04385632   180.51797952
 H     18  17  16     1.087115495474   119.98681805   179.56561602
 H     19  18  17     1.087365251146   120.08750906   178.75711314
 H     20  19  18     1.088707023675   119.57356025   179.27163915

---------------------------
INTERNAL COORDINATES (A.U.)
---------------------------
 H      0   0   0     0.000000000000     0.00000000     0.00000000
 C      1   0   0     2.075989751688     0.00000000     0.00000000
 C      2   1   0     2.896960656563   107.62340938     0.00000000
 C      2   1   3     2.892552539520   105.15733455   117.03767684
 O      4   2   1     2.556114958905   115.72133848    92.47875254
 O      4   2   1     2.311653269579   123.50219437   276.19352862
 C      2   1   3     2.883275592737   108.41839138   240.51438383
 C      7   2   1     2.661217814248   120.32570271   358.96093587
 C      8   7   2     2.652430999480   120.51177098   180.64899473
 C      9   8   7     2.642237333563   119.70992143   357.66522722
 C     10   9   8     2.632491349769   120.14832190     2.40693947
 C     11  10   9     2.635630221518   120.12384667   359.20570594
 C      9   8   7     2.810598981226   122.58853406   179.24475891
 O     13   9   8     2.322535192054   118.78621433   145.23984250
 C     13   9   8     2.809089345609   122.11502274   324.17428102
 C     15  13   9     2.646554609550   122.04444038   330.83514153
 C     16  15  13     2.638156775570   120.05485425   179.99449155
 C     17  16  15     2.635474100985   120.09787136     1.27089464
 C     18  17  16     2.634865738979   120.07520224     0.47561130
 C     19  18  17     2.637499714117   119.98834559   359.10278352
 H      3   2   1     2.070890286045   110.89471659    55.31497535
 H      3   2   1     2.069843432684   111.30368068   295.34758165
 H      3   2   1     2.071627813620   111.72730933   174.52150211
 H      5   4   2     1.845447784727   114.95483919     4.12821327
 H      8   7   2     2.057375910550   119.68079471     1.91685859
 H     10   9   8     2.058036463844   120.14231725   182.49583062
 H     11  10   9     2.055978216691   119.74898539   179.68694503
 H     12  11  10     2.059564486293   118.51374391   179.93051835
 H     16  15  13     2.051530189997   121.32409245   358.70268205
 H     17  16  15     2.055197687148   120.04385632   180.51797952
 H     18  17  16     2.054350562388   119.98681805   179.56561602
 H     19  18  17     2.054822532209   120.08750906   178.75711314
 H     20  19  18     2.057358114823   119.57356025   179.27163915

---------------------
BASIS SET INFORMATION
---------------------
There are 3 groups of distinct atoms

 Group   1 Type H   : 3s contracted to 1s pattern {3}
 Group   2 Type C   : 6s3p contracted to 2s1p pattern {33/3}
 Group   3 Type O   : 6s3p contracted to 2s1p pattern {33/3}

Atom   0H    basis set group =>   1
Atom   1C    basis set group =>   2
Atom   2C    basis set group =>   2
Atom   3C    basis set group =>   2
Atom   4O    basis set group =>   3
Atom   5O    basis set group =>   3
Atom   6C    basis set group =>   2
Atom   7C    basis set group =>   2
Atom   8C    basis set group =>   2
Atom   9C    basis set group =>   2
Atom  10C    basis set group =>   2
Atom  11C    basis set group =>   2
Atom  12C    basis set group =>   2
Atom  13O    basis set group =>   3
Atom  14C    basis set group =>   2
Atom  15C    basis set group =>   2
Atom  16C    basis set group =>   2
Atom  17C    basis set group =>   2
Atom  18C    basis set group =>   2
Atom  19C    basis set group =>   2
Atom  20H    basis set group =>   1
Atom  21H    basis set group =>   1
Atom  22H    basis set group =>   1
Atom  23H    basis set group =>   1
Atom  24H    basis set group =>   1
Atom  25H    basis set group =>   1
Atom  26H    basis set group =>   1
Atom  27H    basis set group =>   1
Atom  28H    basis set group =>   1
Atom  29H    basis set group =>   1
Atom  30H    basis set group =>   1
Atom  31H    basis set group =>   1
Atom  32H    basis set group =>   1
---------------------------------
AUXILIARY/J BASIS SET INFORMATION
---------------------------------
There are 3 groups of distinct atoms

 Group   1 Type H   : 5s2p1d contracted to 3s1p1d pattern {311/2/1}
 Group   2 Type C   : 12s5p4d2f1g contracted to 6s4p3d1f1g pattern {711111/2111/211/2/1}
 Group   3 Type O   : 12s5p4d2f1g contracted to 6s4p3d1f1g pattern {711111/2111/211/2/1}

Atom   0H    basis set group =>   1
Atom   1C    basis set group =>   2
Atom   2C    basis set group =>   2
Atom   3C    basis set group =>   2
Atom   4O    basis set group =>   3
Atom   5O    basis set group =>   3
Atom   6C    basis set group =>   2
Atom   7C    basis set group =>   2
Atom   8C    basis set group =>   2
Atom   9C    basis set group =>   2
Atom  10C    basis set group =>   2
Atom  11C    basis set group =>   2
Atom  12C    basis set group =>   2
Atom  13O    basis set group =>   3
Atom  14C    basis set group =>   2
Atom  15C    basis set group =>   2
Atom  16C    basis set group =>   2
Atom  17C    basis set group =>   2
Atom  18C    basis set group =>   2
Atom  19C    basis set group =>   2
Atom  20H    basis set group =>   1
Atom  21H    basis set group =>   1
Atom  22H    basis set group =>   1
Atom  23H    basis set group =>   1
Atom  24H    basis set group =>   1
Atom  25H    basis set group =>   1
Atom  26H    basis set group =>   1
Atom  27H    basis set group =>   1
Atom  28H    basis set group =>   1
Atom  29H    basis set group =>   1
Atom  30H    basis set group =>   1
Atom  31H    basis set group =>   1
Atom  32H    basis set group =>   1
------------------------------------------------------------------------------
                             ORCA STARTUP CALCULATIONS
                           -- RI-GTO INTEGRALS CHOSEN --
------------------------------------------------------------------------------
------------------------------------------------------------------------------
                   ___                                                        
                  /   \      - P O W E R E D   B Y -                         
                 /     \                                                     
                 |  |  |   _    _      __       _____    __    __             
                 |  |  |  | |  | |    /  \     |  _  \  |  |  /  |          
                  \  \/   | |  | |   /    \    | | | |  |  | /  /          
                 / \  \   | |__| |  /  /\  \   | |_| |  |  |/  /          
                |  |  |   |  __  | /  /__\  \  |    /   |      \           
                |  |  |   | |  | | |   __   |  |    \   |  |\   \          
                \     /   | |  | | |  |  |  |  | |\  \  |  | \   \       
                 \___/    |_|  |_| |__|  |__|  |_| \__\ |__|  \__/        
                                                                              
                      - O R C A' S   B I G   F R I E N D -                    
                                      &                                       
                       - I N T E G R A L  F E E D E R -                       
                                                                              
 v1 FN, 2020, v2 2021, v3 2022-2024                                           
------------------------------------------------------------------------------


----------------------
SHARK INTEGRAL PACKAGE
----------------------

Number of atoms                             ...     33
Number of basis functions                   ...    109
Number of shells                            ...     71
Maximum angular momentum                    ...      1
Integral batch strategy                     ... SHARK/LIBINT Hybrid
RI-J (if used) integral strategy            ... SPLIT-RIJ (Revised 2003 algorithm where possible)
Printlevel                                  ...      1
Contraction scheme used                     ... SEGMENTED contraction
Prescreening option                         ... SCHWARTZ
   Thresh                                   ... 2.500e-11
   Tcut                                     ... 2.500e-12
   Tpresel                                  ... 2.500e-12 
Coulomb Range Separation                    ... NOT USED
Exchange Range Separation                   ... NOT USED
Multipole approximations                    ... NOT USED
Finite Nucleus Model                        ... NOT USED
CABS basis                                  ... NOT available
Auxiliary Coulomb fitting basis             ... AVAILABLE
   # of basis functions in Aux-J            ...   1085
   # of shells in Aux-J                     ...    355
   Maximum angular momentum in Aux-J        ...      4
Auxiliary J/K fitting basis                 ... NOT available
Auxiliary Correlation fitting basis         ... NOT available
Auxiliary 'external' fitting basis          ... NOT available

Checking pre-screening integrals            ... done (  0.0 sec) Dimension = 71
Check shell pair data                       ... done (  0.0 sec)
Shell pair information
Shell pair cut-off parameter TPreSel        ...   2.5e-12
Total number of shell pairs                 ...      2556
Shell pairs after pre-screening             ...      2049
Total number of primitive shell pairs       ...     23004
Primitive shell pairs kept                  ...     11443
          la=0 lb=0:   1018 shell pairs
          la=1 lb=0:    850 shell pairs
          la=1 lb=1:    181 shell pairs

Calculating one electron integrals          ... done (  0.0 sec)
Calculating RI/J V-Matrix + Cholesky decomp.... done (  0.0 sec)
Calculating Nuclear repulsion               ... done (  0.0 sec) ENN=   1312.841986003011 Eh

Diagonalization of the overlap matrix:
Smallest eigenvalue                        ... 1.722e-01
Time for diagonalization                   ...    0.001 sec
Threshold for overlap eigenvalues          ... 1.000e-07
Number of eigenvalues below threshold      ... 0
Time for construction of square roots      ...    0.001 sec
Total time needed                          ...    0.002 sec

-------------------
DFT GRID GENERATION
-------------------

General Integration Accuracy     IntAcc      ... 4.388
Radial Grid Type                 RadialGrid  ... OptM3 with GC (2021)
Angular Grid (max. ang.)         AngularGrid ... 4 (Lebedev-302)
Angular grid pruning method      GridPruning ... 4 (adaptive)
Weight generation scheme         WeightScheme... mBecke (2022)
Basis function cutoff            BFCut       ... 1.0000e-11
Integration weight cutoff        WCut        ... 1.0000e-14
Partially contracted basis set               ... off
Rotationally invariant grid construction     ... off
Angular grids for H and He will be reduced by one unit

Total number of grid points                  ...   158473
Total number of batches                      ...     2493
Average number of points per batch           ...       63
Average number of grid points per atom       ...     4802
Initializing property integral containers    ... done (  0.0 sec)

SHARK setup successfully completed in   0.9 seconds

Maximum memory used throughout the entire STARTUP-calculation: 55.2 MB
-------------------------------------------------------------------------------
                                 ORCA GUESS
                   Start orbitals & Density for SCF / CASSCF
-------------------------------------------------------------------------------

------------
SCF SETTINGS
------------
Hamiltonian:
 Density Functional     Method          .... DFT(GTOs)
 Exchange Functional    Exchange        .... PBE
   PBE kappa parameter   XKappa         ....  0.804000
   PBE mue parameter    XMuePBE         ....  0.219520
 Correlation Functional Correlation     .... PBE
   PBE beta parameter  CBetaPBE         ....  0.066725
 LDA part of GGA corr.  LDAOpt          .... PW91-LDA
 Gradients option       PostSCFGGA      .... off
   NL short-range parameter             ....  6.400000
 RI-approximation to the Coulomb term is turned on
   Number of AuxJ basis functions       .... 1085


General Settings:
 Integral files         IntName         .... Dexketoprofen\Dexketoprofen_PBE_STO-3G\Dexketoprofen_PBE_STO-3G.orcainp
 Hartree-Fock type      HFTyp           .... RHF
 Total Charge           Charge          ....    0
 Multiplicity           Mult            ....    1
 Number of Electrons    NEL             ....  134
 Basis Dimension        Dim             ....  109
 Nuclear Repulsion      ENuc            ....   1312.8419860030 Eh

Convergence Acceleration:
 AO-DIIS                CNVDIIS         .... on
   Start iteration      DIISMaxIt       ....    12
   Startup error        DIISStart       ....  0.200000
   # of expansion vecs  DIISMaxEq       ....     5
   Bias factor          DIISBfac        ....   1.050
   Max. coefficient     DIISMaxC        ....  10.000
 MO-DIIS                CNVKDIIS        .... off
 Trust-Rad. Augm. Hess. CNVTRAH         .... auto
   Auto Start mean grad. ratio tolernc. ....  1.125000
   Auto Start start iteration           ....    50
   Auto Start num. interpolation iter.  ....    10
   Max. Number of Micro iterations      ....    24
   Max. Number of Macro iterations      .... Maxiter - #DIIS iter
   Number of Davidson start vectors     ....     2
   Converg. threshold    (grad. norm)   ....   1.000e-05
   Grad. Scal. Fac. for Micro threshold ....   0.100
   Minimum threshold for Micro iter.    ....   1.000e-02
   NR start threshold (gradient norm)   ....   1.000e-04
   Initial trust radius                 ....   0.400
   Minimum AH scaling param. (alpha)    ....   1.000
   Maximum AH scaling param. (alpha)    .... 1000.000
   Quad. conv. algorithm                .... NR
   White noise on init. David. guess    .... on
   Maximum white noise                  ....   0.010
   Pseudo random numbers                .... off
   Inactive MOs                         .... canonical
   Orbital update algorithm             .... Taylor
   Preconditioner                       .... Diag
   Full preconditioner red. dimension   ....   250
 SOSCF                  CNVSOSCF        .... on
   Start iteration      SOSCFMaxIt      ....   150
   Startup grad/error   SOSCFStart      ....  0.003300
   Hessian update       SOSCFHessUp     .... L-BFGS
 Level Shifting         CNVShift        .... on
   Level shift para.    LevelShift      ....    0.2500
   Turn off err/grad.   ShiftErr        ....    0.0010
 Zerner damping         CNVZerner       .... off
 Static damping         CNVDamp         .... on
   Fraction old density DampFac         ....    0.7000
   Max. Damping (<1)    DampMax         ....    0.9800
   Min. Damping (>=0)   DampMin         ....    0.0000
   Turn off err/grad.   DampErr         ....    0.1000

SCF Procedure:
 Maximum # iterations   MaxIter         ....   125
 SCF integral mode      SCFMode         .... Direct
   Integral package                     .... SHARK and LIBINT hybrid scheme
 Reset frequency        DirectResetFreq ....    20
 Integral Threshold     Thresh          ....  2.500e-11 Eh
 Primitive CutOff       TCut            ....  2.500e-12 Eh

Convergence Tolerance:
 Convergence Check Mode ConvCheckMode   .... Total+1el-Energy
 Convergence forced     ConvForced      .... 0
 Energy Change          TolE            ....  1.000e-08 Eh
 1-El. energy change                    ....  1.000e-05 Eh
 Orbital Gradient       TolG            ....  1.000e-05
 Orbital Rotation angle TolX            ....  1.000e-05
 DIIS Error             TolErr          ....  5.000e-07

------------------------------
INITIAL GUESS: MODEL POTENTIAL
------------------------------
Loading Hartree-Fock densities                     ... done
Calculating cut-offs                               ... done
Initializing the effective Hamiltonian             ... done
Setting up the integral package (SHARK)            ... done
Starting the Coulomb interaction                   ... done (   0.1 sec)
Making the grid                                    ... done (   0.2 sec)
Mapping shells                                     ... done
Starting the XC term evaluation                    ... done (   0.1 sec)
  promolecular density results
     # of electrons  =    133.983570687
     EX              =   -110.373801517
     EC              =     -4.477121183
     EX+EC           =   -114.850922700
Transforming the Hamiltonian                       ... done (   0.0 sec)
Diagonalizing the Hamiltonian                      ... done (   0.0 sec)
Back transforming the eigenvectors                 ... done (   0.0 sec)
Now organizing SCF variables                       ... done
                      ------------------
                      INITIAL GUESS DONE (   0.5 sec)
                      ------------------
             **** ENERGY FILE WAS UPDATED (Dexketoprofen\Dexketoprofen_PBE_STO-3G\Dexketoprofen_PBE_STO-3G.orcainp.en.tmp) ****
Finished Guess after   0.5 sec
Maximum memory used throughout the entire GUESS-calculation: 23.6 MB

-------------------------------------------------------------------------------------------
                                      ORCA LEAN-SCF
                              memory conserving SCF solver
-------------------------------------------------------------------------------------------

--------------------
CPCM SOLVATION MODEL
--------------------
CPCM parameters:
  Epsilon                                         ...      80.1510
  Refrac                                          ...       1.3328
  Rsolv                                           ...       1.3000
  Surface type                                    ... GAUSSIAN VDW
  Discretization scheme                           ... Constant charge density
    Threshold for H atoms                         ...       5.0000 (charges/Ang^2)
    Threshold for non-H atoms                     ...       5.0000 (charges/Ang^2)
  Epsilon function type                           ...         CPCM
Solvent:                                          ... WATER
Radii:
  Scheme                                          ... Element-dependent radii
  Radius for H  used is    2.4944 Bohr (=   1.3200 Ang.)
  Radius for C  used is    3.8550 Bohr (=   2.0400 Ang.)
  Radius for O  used is    3.4469 Bohr (=   1.8240 Ang.)
Calculating surface                               ...        done! (  0.0s)
Cavity surface points                             ...         2957
Cavity Volume                                     ...    2100.0638
Cavity Surface-area                               ...    1086.2172
Calculating surface distance matrix               ...        done! (  0.0s)
Performing Cholesky decomposition & store         ...        done! (  0.2s)
Overall time for CPCM initialization              ...                 0.2s

----------------------------------------D-I-I-S--------------------------------------------
Iteration    Energy (Eh)           Delta-E    RMSDP     MaxDP     DIISErr   Damp  Time(sec)
-------------------------------------------------------------------------------------------
               ***  Starting incremental Fock matrix formation  ***
    1    -831.9548556660797658     0.00e+00  6.21e-03  1.37e-01  2.19e-01  0.700   1.0
Warning: op=0 Small HOMO/LUMO gap (   0.071) - skipping pre-diagonalization
         Will do a full diagonalization
    2    -832.0480243355386847    -9.32e-02  3.80e-03  8.13e-02  7.74e-02  0.700   1.0
                               ***Turning on AO-DIIS***
    3    -832.0764534151835505    -2.84e-02  1.48e-03  2.79e-02  4.13e-02  0.700   1.0
    4    -832.0946405308700378    -1.82e-02  2.16e-03  3.72e-02  1.91e-02  0.000   1.0
    5    -832.1367223217057472    -4.21e-02  6.24e-04  1.13e-02  1.18e-02  0.000   1.0
                              *** Initializing SOSCF ***
---------------------------------------S-O-S-C-F--------------------------------------
Iteration    Energy (Eh)           Delta-E    RMSDP     MaxDP     MaxGrad    Time(sec)
--------------------------------------------------------------------------------------
    6    -832.1374340996708270    -7.12e-04  2.04e-04  3.75e-03  3.26e-03     0.9
               *** Restarting incremental Fock matrix formation ***
    7    -832.1374971256000208    -6.30e-05  2.70e-04  9.45e-03  1.05e-03     1.0
    8    -832.1374536900593739     4.34e-05  1.88e-04  7.01e-03  3.30e-03     0.9
    9    -832.1375084663732196    -5.48e-05  7.09e-05  1.56e-03  3.16e-04     0.9
   10    -832.1375074317497820     1.03e-06  4.06e-05  1.02e-03  3.52e-04     0.9
   11    -832.1375096818201200    -2.25e-06  1.80e-05  3.52e-04  3.87e-05     0.9
   12    -832.1375095647763374     1.17e-07  1.15e-05  2.83e-04  6.52e-05     0.9
   13    -832.1375097384770925    -1.74e-07  8.08e-06  1.26e-04  1.53e-05     0.9
   14    -832.1375097105833447     2.79e-08  5.11e-06  8.78e-05  3.00e-05     0.8
   15    -832.1375097531999927    -4.26e-08  9.80e-07  1.97e-05  2.12e-06     0.8
                  *** Gradient check signals convergence ***

               *****************************************************
               *                     SUCCESS                       *
               *           SCF CONVERGED AFTER  15 CYCLES          *
               *****************************************************

             **** ENERGY FILE WAS UPDATED (Dexketoprofen\Dexketoprofen_PBE_STO-3G\Dexketoprofen_PBE_STO-3G.orcainp.en.tmp) ****

----------------
TOTAL SCF ENERGY
----------------

Total Energy       :       -832.13750975319999 Eh          -22643.61282 eV

Components:
Nuclear Repulsion  :       1312.84198600301079 Eh           35724.24662 eV
Electronic Energy  :      -2144.96817284644112 Eh          -58367.55133 eV
One Electron Energy:      -3744.38440158048070 Eh         -101889.87955 eV
Two Electron Energy:       1599.41622873403935 Eh           43522.32822 eV
CPCM Dielectric    :         -0.01132290976988 Eh              -0.30811 eV

Virial components:
Potential Energy   :      -1651.91502680348708 Eh          -44950.89314 eV
Kinetic Energy     :        819.77751705028709 Eh           22307.28032 eV
Virial Ratio       :          2.01507725260310

DFT components:
N(Alpha)           :       66.999977196524 electrons
N(Beta)            :       66.999977196524 electrons
N(Total)           :      133.999954393049 electrons
E(X)               :     -112.253939346565 Eh       
E(C)               :       -4.644593934618 Eh       
E(XC)              :     -116.898533281183 Eh       

CPCM Solvation Model Properties:
Surface-charge          :         -0.01067189646543
Corrected charge        :          0.00000000000000
Outlying charge corr.   :          0.00000632670772 Eh               0.00017 eV
Free-energy (cav+disp)  :  This term is not implemented in the current solvation scheme

---------------
SCF CONVERGENCE
---------------

  Last Energy change         ...    4.2617e-08  Tolerance :   1.0000e-08
  Last MAX-Density change    ...    1.9680e-05  Tolerance :   1.0000e-07
  Last RMS-Density change    ...    9.8025e-07  Tolerance :   5.0000e-09
  Last DIIS Error            ...    3.2573e-03  Tolerance :   5.0000e-07
  Last Orbital Gradient      ...    2.1190e-06  Tolerance :   1.0000e-05
  Last Orbital Rotation      ...    1.0487e-05  Tolerance :   1.0000e-05


----------------
ORBITAL ENERGIES
----------------

  NO   OCC          E(Eh)            E(eV) 
   0   2.0000     -18.555506      -504.9210 
   1   2.0000     -18.507379      -503.6114 
   2   2.0000     -18.480444      -502.8784 
   3   2.0000      -9.807969      -266.8884 
   4   2.0000      -9.790266      -266.4067 
   5   2.0000      -9.740358      -265.0486 
   6   2.0000      -9.730869      -264.7904 
   7   2.0000      -9.727621      -264.7020 
   8   2.0000      -9.727357      -264.6948 
   9   2.0000      -9.721133      -264.5255 
  10   2.0000      -9.720967      -264.5210 
  11   2.0000      -9.720664      -264.5127 
  12   2.0000      -9.720142      -264.4985 
  13   2.0000      -9.720036      -264.4956 
  14   2.0000      -9.719576      -264.4831 
  15   2.0000      -9.719064      -264.4692 
  16   2.0000      -9.718859      -264.4636 
  17   2.0000      -9.718655      -264.4580 
  18   2.0000      -9.712235      -264.2834 
  19   2.0000      -0.942814       -25.6553 
  20   2.0000      -0.905502       -24.6400 
  21   2.0000      -0.862996       -23.4833 
  22   2.0000      -0.747084       -20.3292 
  23   2.0000      -0.740484       -20.1496 
  24   2.0000      -0.687405       -18.7052 
  25   2.0000      -0.657221       -17.8839 
  26   2.0000      -0.639669       -17.4063 
  27   2.0000      -0.635102       -17.2820 
  28   2.0000      -0.621739       -16.9184 
  29   2.0000      -0.551855       -15.0167 
  30   2.0000      -0.541323       -14.7302 
  31   2.0000      -0.515347       -14.0233 
  32   2.0000      -0.508412       -13.8346 
  33   2.0000      -0.498273       -13.5587 
  34   2.0000      -0.481610       -13.1053 
  35   2.0000      -0.453727       -12.3465 
  36   2.0000      -0.435530       -11.8514 
  37   2.0000      -0.407925       -11.1002 
  38   2.0000      -0.400183       -10.8895 
  39   2.0000      -0.378419       -10.2973 
  40   2.0000      -0.372094       -10.1252 
  41   2.0000      -0.358464        -9.7543 
  42   2.0000      -0.354098        -9.6355 
  43   2.0000      -0.341484        -9.2922 
  44   2.0000      -0.337636        -9.1875 
  45   2.0000      -0.335532        -9.1303 
  46   2.0000      -0.322510        -8.7759 
  47   2.0000      -0.302017        -8.2183 
  48   2.0000      -0.299836        -8.1589 
  49   2.0000      -0.294646        -8.0177 
  50   2.0000      -0.290157        -7.8956 
  51   2.0000      -0.277490        -7.5509 
  52   2.0000      -0.275494        -7.4966 
  53   2.0000      -0.269068        -7.3217 
  54   2.0000      -0.262508        -7.1432 
  55   2.0000      -0.255078        -6.9410 
  56   2.0000      -0.248645        -6.7660 
  57   2.0000      -0.245098        -6.6695 
  58   2.0000      -0.238957        -6.5024 
  59   2.0000      -0.194555        -5.2941 
  60   2.0000      -0.175653        -4.7798 
  61   2.0000      -0.172918        -4.7053 
  62   2.0000      -0.171184        -4.6581 
  63   2.0000      -0.164968        -4.4890 
  64   2.0000      -0.138222        -3.7612 
  65   2.0000      -0.094362        -2.5677 
  66   2.0000      -0.089579        -2.4376 
  67   0.0000      -0.001447        -0.0394 
  68   0.0000       0.046321         1.2605 
  69   0.0000       0.047638         1.2963 
  70   0.0000       0.052582         1.4308 
  71   0.0000       0.087990         2.3943 
  72   0.0000       0.106514         2.8984 
  73   0.0000       0.192980         5.2513 
  74   0.0000       0.218579         5.9478 
  75   0.0000       0.269011         7.3202 
  76   0.0000       0.282843         7.6966 
  77   0.0000       0.298838         8.1318 
*Only the first 10 virtual orbitals were printed.

                    ********************************
                    * MULLIKEN POPULATION ANALYSIS *
                    ********************************

-----------------------
MULLIKEN ATOMIC CHARGES
-----------------------
   0 H :    0.103113
   1 C :   -0.096597
   2 C :   -0.238666
   3 C :    0.205211
   4 O :   -0.236143
   5 O :   -0.227140
   6 C :   -0.015593
   7 C :   -0.088860
   8 C :   -0.026993
   9 C :   -0.086753
  10 C :   -0.090905
  11 C :   -0.092646
  12 C :    0.134630
  13 O :   -0.182857
  14 C :   -0.027275
  15 C :   -0.087553
  16 C :   -0.090481
  17 C :   -0.088163
  18 C :   -0.091031
  19 C :   -0.084935
  20 H :    0.089194
  21 H :    0.087918
  22 H :    0.086502
  23 H :    0.253773
  24 H :    0.099145
  25 H :    0.099410
  26 H :    0.098985
  27 H :    0.098454
  28 H :    0.100344
  29 H :    0.098256
  30 H :    0.098923
  31 H :    0.098553
  32 H :    0.100178
Sum of atomic charges:    0.0000000

--------------------------------
MULLIKEN REDUCED ORBITAL CHARGES
--------------------------------
  0 H s       :     0.896887  s :     0.896887

  1 C s       :     3.179555  s :     3.179555
      pz      :     0.963777  p :     2.917041
      px      :     1.016982
      py      :     0.936283

  2 C s       :     3.196963  s :     3.196963
      pz      :     0.970855  p :     3.041703
      px      :     1.048025
      py      :     1.022823

  3 C s       :     3.080489  s :     3.080489
      pz      :     0.911100  p :     2.714300
      px      :     0.969723
      py      :     0.833476

  4 O s       :     3.816662  s :     3.816662
      pz      :     1.543759  p :     4.419481
      px      :     1.661995
      py      :     1.213727

  5 O s       :     3.885431  s :     3.885431
      pz      :     1.649469  p :     4.341709
      px      :     1.418353
      py      :     1.273887

  6 C s       :     3.142666  s :     3.142666
      pz      :     0.989425  p :     2.872927
      px      :     0.951066
      py      :     0.932436

  7 C s       :     3.155779  s :     3.155779
      pz      :     0.995975  p :     2.933081
      px      :     0.995925
      py      :     0.941181

  8 C s       :     3.131711  s :     3.131711
      pz      :     0.997367  p :     2.895281
      px      :     0.955654
      py      :     0.942260

  9 C s       :     3.149166  s :     3.149166
      pz      :     0.982628  p :     2.937588
      px      :     0.959999
      py      :     0.994961

 10 C s       :     3.146602  s :     3.146602
      pz      :     0.995028  p :     2.944304
      px      :     0.998299
      py      :     0.950976

 11 C s       :     3.150944  s :     3.150944
      pz      :     0.991588  p :     2.941702
      px      :     0.966328
      py      :     0.983786

 12 C s       :     3.117199  s :     3.117199
      pz      :     0.918352  p :     2.748171
      px      :     0.952739
      py      :     0.877080

 13 O s       :     3.889012  s :     3.889012
      pz      :     1.402031  p :     4.293844
      px      :     1.476018
      py      :     1.415796

 14 C s       :     3.131030  s :     3.131030
      pz      :     0.956772  p :     2.896245
      px      :     0.961077
      py      :     0.978396

 15 C s       :     3.150341  s :     3.150341
      pz      :     0.959473  p :     2.937212
      px      :     0.993085
      py      :     0.984654

 16 C s       :     3.147236  s :     3.147236
      pz      :     0.990435  p :     2.943245
      px      :     0.963710
      py      :     0.989100

 17 C s       :     3.148530  s :     3.148530
      pz      :     0.984439  p :     2.939633
      px      :     0.984183
      py      :     0.971011

 18 C s       :     3.146862  s :     3.146862
      pz      :     0.958691  p :     2.944170
      px      :     0.992820
      py      :     0.992658

 19 C s       :     3.150977  s :     3.150977
      pz      :     0.993845  p :     2.933958
      px      :     0.962724
      py      :     0.977389

 20 H s       :     0.910806  s :     0.910806

 21 H s       :     0.912082  s :     0.912082

 22 H s       :     0.913498  s :     0.913498

 23 H s       :     0.746227  s :     0.746227

 24 H s       :     0.900855  s :     0.900855

 25 H s       :     0.900590  s :     0.900590

 26 H s       :     0.901015  s :     0.901015

 27 H s       :     0.901546  s :     0.901546

 28 H s       :     0.899656  s :     0.899656

 29 H s       :     0.901744  s :     0.901744

 30 H s       :     0.901077  s :     0.901077

 31 H s       :     0.901447  s :     0.901447

 32 H s       :     0.899822  s :     0.899822



                     *******************************
                     * LOEWDIN POPULATION ANALYSIS *
                     *******************************

----------------------
LOEWDIN ATOMIC CHARGES
----------------------
   0 H :    0.061410
   1 C :   -0.058559
   2 C :   -0.132180
   3 C :    0.122714
   4 O :   -0.127433
   5 O :   -0.176927
   6 C :   -0.007490
   7 C :   -0.053641
   8 C :   -0.031049
   9 C :   -0.047663
  10 C :   -0.050405
  11 C :   -0.054409
  12 C :    0.096831
  13 O :   -0.126023
  14 C :   -0.031577
  15 C :   -0.047372
  16 C :   -0.050202
  17 C :   -0.045567
  18 C :   -0.050489
  19 C :   -0.045233
  20 H :    0.051556
  21 H :    0.050343
  22 H :    0.049265
  23 H :    0.186196
  24 H :    0.057855
  25 H :    0.057697
  26 H :    0.057424
  27 H :    0.057240
  28 H :    0.058548
  29 H :    0.056742
  30 H :    0.057176
  31 H :    0.056986
  32 H :    0.058234

-------------------------------
LOEWDIN REDUCED ORBITAL CHARGES
-------------------------------
  0 H s       :     0.938590  s :     0.938590

  1 C s       :     3.036739  s :     3.036739
      pz      :     1.001541  p :     3.021820
      px      :     1.040051
      py      :     0.980229

  2 C s       :     3.015869  s :     3.015869
      pz      :     1.004586  p :     3.116311
      px      :     1.066347
      py      :     1.045378

  3 C s       :     3.044459  s :     3.044459
      pz      :     0.943538  p :     2.832826
      px      :     0.980726
      py      :     0.908563

  4 O s       :     3.669905  s :     3.669905
      pz      :     1.561373  p :     4.457528
      px      :     1.668105
      py      :     1.228050

  5 O s       :     3.769732  s :     3.769732
      pz      :     1.656183  p :     4.407194
      px      :     1.422345
      py      :     1.328666

  6 C s       :     3.036540  s :     3.036540
      pz      :     0.994947  p :     2.970950
      px      :     0.997300
      py      :     0.978702

  7 C s       :     3.033844  s :     3.033844
      pz      :     1.000165  p :     3.019796
      px      :     1.021509
      py      :     0.998122

  8 C s       :     3.030713  s :     3.030713
      pz      :     1.004168  p :     3.000337
      px      :     1.001554
      py      :     0.994616

  9 C s       :     3.025298  s :     3.025298
      pz      :     0.989337  p :     3.022365
      px      :     1.006531
      py      :     1.026497

 10 C s       :     3.021548  s :     3.021548
      pz      :     0.998421  p :     3.028857
      px      :     1.023223
      py      :     1.007213

 11 C s       :     3.027520  s :     3.027520
      pz      :     0.997000  p :     3.026888
      px      :     1.007985
      py      :     1.021903

 12 C s       :     3.047745  s :     3.047745
      pz      :     0.950096  p :     2.855424
      px      :     0.969914
      py      :     0.935414

 13 O s       :     3.773923  s :     3.773923
      pz      :     1.419654  p :     4.352100
      px      :     1.481369
      py      :     1.451078

 14 C s       :     3.030097  s :     3.030097
      pz      :     0.999259  p :     3.001480
      px      :     0.997337
      py      :     1.004884

 15 C s       :     3.025898  s :     3.025898
      pz      :     1.005180  p :     3.021474
      px      :     1.015954
      py      :     1.000340

 16 C s       :     3.022381  s :     3.022381
      pz      :     1.017006  p :     3.027821
      px      :     1.003651
      py      :     1.007164

 17 C s       :     3.022824  s :     3.022824
      pz      :     1.013888  p :     3.022743
      px      :     1.010284
      py      :     0.998571

 18 C s       :     3.021850  s :     3.021850
      pz      :     1.003985  p :     3.028639
      px      :     1.015381
      py      :     1.009272

 19 C s       :     3.026908  s :     3.026908
      pz      :     1.019949  p :     3.018325
      px      :     1.001746
      py      :     0.996629

 20 H s       :     0.948444  s :     0.948444

 21 H s       :     0.949657  s :     0.949657

 22 H s       :     0.950735  s :     0.950735

 23 H s       :     0.813804  s :     0.813804

 24 H s       :     0.942145  s :     0.942145

 25 H s       :     0.942303  s :     0.942303

 26 H s       :     0.942576  s :     0.942576

 27 H s       :     0.942760  s :     0.942760

 28 H s       :     0.941452  s :     0.941452

 29 H s       :     0.943258  s :     0.943258

 30 H s       :     0.942824  s :     0.942824

 31 H s       :     0.943014  s :     0.943014

 32 H s       :     0.941766  s :     0.941766



                      *****************************
                      * MAYER POPULATION ANALYSIS *
                      *****************************

  NA   - Mulliken gross atomic population
  ZA   - Total nuclear charge
  QA   - Mulliken gross atomic charge
  VA   - Mayer's total valence
  BVA  - Mayer's bonded valence
  FA   - Mayer's free valence

  ATOM       NA         ZA         QA         VA         BVA        FA
  0 H      0.8969     1.0000     0.1031     0.9894     0.9894     0.0000
  1 C      6.0966     6.0000    -0.0966     3.9596     3.9596    -0.0000
  2 C      6.2387     6.0000    -0.2387     3.9511     3.9511     0.0000
  3 C      5.7948     6.0000     0.2052     3.9177     3.9177     0.0000
  4 O      8.2361     8.0000    -0.2361     2.3327     2.3327    -0.0000
  5 O      8.2271     8.0000    -0.2271     2.2949     2.2949    -0.0000
  6 C      6.0156     6.0000    -0.0156     3.9716     3.9716    -0.0000
  7 C      6.0889     6.0000    -0.0889     3.9656     3.9656     0.0000
  8 C      6.0270     6.0000    -0.0270     3.9763     3.9763    -0.0000
  9 C      6.0868     6.0000    -0.0868     3.9681     3.9681     0.0000
 10 C      6.0909     6.0000    -0.0909     3.9699     3.9699    -0.0000
 11 C      6.0926     6.0000    -0.0926     3.9684     3.9684     0.0000
 12 C      5.8654     6.0000     0.1346     3.9291     3.9291     0.0000
 13 O      8.1829     8.0000    -0.1829     2.2279     2.2279     0.0000
 14 C      6.0273     6.0000    -0.0273     3.9763     3.9763     0.0000
 15 C      6.0876     6.0000    -0.0876     3.9681     3.9681     0.0000
 16 C      6.0905     6.0000    -0.0905     3.9697     3.9697     0.0000
 17 C      6.0882     6.0000    -0.0882     3.9696     3.9696     0.0000
 18 C      6.0910     6.0000    -0.0910     3.9698     3.9698     0.0000
 19 C      6.0849     6.0000    -0.0849     3.9675     3.9675     0.0000
 20 H      0.9108     1.0000     0.0892     0.9920     0.9920    -0.0000
 21 H      0.9121     1.0000     0.0879     0.9923     0.9923     0.0000
 22 H      0.9135     1.0000     0.0865     0.9925     0.9925     0.0000
 23 H      0.7462     1.0000     0.2538     0.9356     0.9356    -0.0000
 24 H      0.9009     1.0000     0.0991     0.9902     0.9902     0.0000
 25 H      0.9006     1.0000     0.0994     0.9901     0.9901    -0.0000
 26 H      0.9010     1.0000     0.0990     0.9902     0.9902     0.0000
 27 H      0.9015     1.0000     0.0985     0.9903     0.9903     0.0000
 28 H      0.8997     1.0000     0.1003     0.9899     0.9899    -0.0000
 29 H      0.9017     1.0000     0.0983     0.9903     0.9903    -0.0000
 30 H      0.9011     1.0000     0.0989     0.9902     0.9902    -0.0000
 31 H      0.9014     1.0000     0.0986     0.9903     0.9903     0.0000
 32 H      0.8998     1.0000     0.1002     0.9900     0.9900     0.0000

  Mayer bond orders larger than 0.100000
B(  0-H ,  1-C ) :   0.9398 B(  1-C ,  2-C ) :   0.9832 B(  1-C ,  3-C ) :   0.8883 
B(  1-C ,  6-C ) :   0.9840 B(  2-C , 20-H ) :   0.9716 B(  2-C , 21-H ) :   0.9743 
B(  2-C , 22-H ) :   0.9739 B(  3-C ,  4-O ) :   1.1078 B(  3-C ,  5-O ) :   1.8669 
B(  4-O ,  5-O ) :   0.2697 B(  4-O , 23-H ) :   0.8751 B(  6-C ,  7-C ) :   1.4021 
B(  6-C ,  9-C ) :   0.1064 B(  6-C , 11-C ) :   1.3887 B(  7-C ,  8-C ) :   1.3855 
B(  7-C , 10-C ) :   0.1076 B(  7-C , 24-H ) :   0.9525 B(  8-C ,  9-C ) :   1.3825 
B(  8-C , 11-C ) :   0.1036 B(  8-C , 12-C ) :   0.9779 B(  9-C , 10-C ) :   1.4370 
B(  9-C , 25-H ) :   0.9536 B( 10-C , 11-C ) :   1.4329 B( 10-C , 26-H ) :   0.9574 
B( 11-C , 27-H ) :   0.9554 B( 12-C , 13-O ) :   1.8889 B( 12-C , 14-C ) :   0.9827 
B( 14-C , 15-C ) :   1.3821 B( 14-C , 17-C ) :   0.1053 B( 14-C , 19-C ) :   1.3808 
B( 15-C , 16-C ) :   1.4392 B( 15-C , 18-C ) :   0.1110 B( 15-C , 28-H ) :   0.9544 
B( 16-C , 17-C ) :   1.4279 B( 16-C , 19-C ) :   0.1128 B( 16-C , 29-H ) :   0.9578 
B( 17-C , 18-C ) :   1.4244 B( 17-C , 30-H ) :   0.9580 B( 18-C , 19-C ) :   1.4442 
B( 18-C , 31-H ) :   0.9577 B( 19-C , 32-H ) :   0.9533 

-------
TIMINGS
-------

Total SCF time: 0 days 0 hours 0 min 14 sec 

Total time                  ....      14.088 sec
Sum of individual times     ....      14.026 sec  ( 99.6%)

SCF preparation             ....       0.266 sec  (  1.9%)
Fock matrix formation       ....      13.635 sec  ( 96.8%)
  Startup                   ....       0.014 sec  (  0.1% of F)
  Split-RI-J                ....       3.458 sec  ( 25.4% of F)
  XC integration            ....       3.936 sec  ( 28.9% of F)
    Basis function eval.    ....       1.832 sec  ( 46.5% of XC)
    Density eval.           ....       0.707 sec  ( 18.0% of XC)
    XC-Functional eval.     ....       0.353 sec  (  9.0% of XC)
    XC-Potential eval.      ....       0.511 sec  ( 13.0% of XC)
  CPCM terms                ....       6.144 sec  ( 45.1% of F)
Diagonalization             ....       0.000 sec  (  0.0%)
Density matrix formation    ....       0.032 sec  (  0.2%)
Total Energy calculation    ....       0.012 sec  (  0.1%)
Population analysis         ....       0.009 sec  (  0.1%)
Orbital Transformation      ....       0.007 sec  (  0.0%)
Orbital Orthonormalization  ....       0.000 sec  (  0.0%)
DIIS solution               ....       0.033 sec  (  0.2%)
SOSCF solution              ....       0.032 sec  (  0.2%)
Finished LeanSCF after  14.2 sec

Maximum memory used throughout the entire LEANSCF-calculation: 74.9 MB

-------------------------   --------------------
FINAL SINGLE POINT ENERGY      -832.137509753200
-------------------------   --------------------

------------------------------------------------------------------------------
                         ORCA SCF GRADIENT CALCULATION
------------------------------------------------------------------------------

Nuc. rep. gradient        (SHARK) ... done (  0.0 sec)
HCore & Overlap gradient  (SHARK) ... done (  0.1 sec)
Split-RIJ-J gradient      (SHARK) ... done (  0.8 sec)
XC gradient                       ... done (  3.5 sec)
CPCM gradient                     ... done (  0.7 sec)

------------------
CARTESIAN GRADIENT
------------------

   1   H   :    0.011637259    0.004416154   -0.002649287
   2   C   :    0.014218980    0.016795412    0.021690027
   3   C   :    0.000762461   -0.010527766    0.014105971
   4   C   :    0.008850245    0.035509573    0.018238642
   5   O   :   -0.039052349   -0.041369491   -0.069206859
   6   O   :   -0.001306634   -0.072842724   -0.002868546
   7   C   :    0.007108153   -0.002243112   -0.005564898
   8   C   :   -0.002260414   -0.004672987   -0.000596359
   9   C   :    0.000393451   -0.018499861   -0.007975146
  10   C   :   -0.009918635    0.003153374    0.004130142
  11   C   :   -0.004728835    0.001433969    0.003215585
  12   C   :   -0.007195528   -0.004767443    0.002525518
  13   C   :    0.005551775   -0.023994227   -0.016376296
  14   O   :   -0.013106390    0.073514806    0.049771406
  15   C   :    0.005139184   -0.011811824   -0.009562278
  16   C   :    0.001808368   -0.005601284   -0.007876562
  17   C   :   -0.002814614   -0.002998173   -0.005422625
  18   C   :    0.005911684   -0.000159098   -0.006804596
  19   C   :    0.003016078    0.005965687    0.003888219
  20   C   :    0.008345032    0.006267422   -0.000757893
  21   H   :    0.004380915   -0.006926899   -0.003275272
  22   H   :    0.004167178    0.005657728    0.004672190
  23   H   :   -0.007866160    0.000740731    0.001344433
  24   H   :    0.010141244    0.054428042    0.021300314
  25   H   :    0.011368461   -0.001730107   -0.005649687
  26   H   :   -0.002422461    0.012723251   -0.000189898
  27   H   :   -0.012425001    0.000858661    0.003993441
  28   H   :   -0.004859217   -0.010931820    0.001333051
  29   H   :   -0.011924635   -0.009655494    0.002479849
  30   H   :   -0.001831262   -0.007536143   -0.010999481
  31   H   :    0.009575212    0.000546265   -0.010214475
  32   H   :    0.010544741    0.008541971    0.001079800
  33   H   :   -0.001208286    0.005715408    0.012221570

Difference to translation invariance:
           :    0.0000000000   -0.0000000000   -0.0000000000

Difference to rotation invariance:
           :   -0.0000991556    0.0000366631   -0.0002073958

Norm of the Cartesian gradient     ...    0.1793015301
RMS gradient                       ...    0.0180204818
MAX gradient                       ...    0.0735148064

-------
TIMINGS
-------

Total SCF gradient time     ....        5.585 sec

One electron gradient       ....       0.124 sec  (  2.2%)
RI-J Coulomb gradient       ....       0.847 sec  ( 15.2%)
XC gradient                 ....       3.539 sec  ( 63.4%)
CPCM gradient               ....       0.711 sec  ( 12.7%)
   A-Matrix (El+Nuc)        ....       0.252 sec  (  4.5%)
   Potential                ....       0.459 sec  (  8.2%)

Maximum memory used throughout the entire SCFGRAD-calculation: 25.4 MB
------------------------------------------------------------------------------
                         ORCA GEOMETRY RELAXATION STEP
------------------------------------------------------------------------------

Reading the OPT-File                    .... done
Getting information on internals        .... done
Copying old internal coords+grads       .... done
Making the new internal coordinates     .... (2022 redundants) done
Validating the new internal coordinates .... (2022 redundants) done
Calculating the B-matrix                .... done
Calculating the G,G- and P matrices     .... done
Transforming gradient to internals      .... done
Projecting the internal gradient        .... done
Number of atoms                         ....  33
Number of internal coordinates          .... 163
Current Energy                          ....  -832.137509753 Eh
Current gradient norm                   ....     0.179301530 Eh/bohr
Maximum allowed component of the step   ....  0.300
Current trust radius                    ....  0.300
Evaluating the initial hessian          ....  (Almloef) done
Projecting the Hessian                  .... done
Forming the augmented Hessian           .... done
Diagonalizing the augmented Hessian     .... done
Last element of RFO vector              ....  0.953621387
Lowest eigenvalues of augmented Hessian:
 -0.053958020  0.010391760  0.010745055  0.010933523  0.013064497
Length of the computed step             ....  0.315648040
Warning: the length of the step is outside the trust region - taking restricted step instead
The input lambda is                     ....     0.009389
   iter:   5  x=   -0.017276  g=    7.464203 f(x)=     0.096384
   iter:  10  x=   -0.074619  g=    0.403879 f(x)=     0.000001
The output lambda is                    ....    -0.074619 (12 iterations)
The final length of the internal step   ....  0.300000000
Converting the step to Cartesian space:
 Initial RMS(Int)=    0.0234978135
Transforming coordinates:
 Iter   0:  RMS(Cart)=    0.0687934661 RMS(Int)=    0.8513827987
 Iter   5:  RMS(Cart)=    0.0000000373 RMS(Int)=    0.0000000282
done
Storing new coordinates                 .... done

                                .--------------------.
          ----------------------|Geometry convergence|-------------------------
          Item                value                   Tolerance       Converged
          ---------------------------------------------------------------------
          RMS gradient        0.0146468205            0.0001000000      NO
[...]
      pz      :     0.975553  p :     2.917325
      px      :     0.956008
      py      :     0.985764

 10 C s       :     3.160749  s :     3.160749
      pz      :     0.993557  p :     2.926799
      px      :     0.991823
      py      :     0.941419

 11 C s       :     3.166374  s :     3.166374
      pz      :     0.983679  p :     2.919591
      px      :     0.958377
      py      :     0.977534

 12 C s       :     3.168491  s :     3.168491
      pz      :     0.908151  p :     2.707979
      px      :     0.938426
      py      :     0.861402

 13 O s       :     3.902105  s :     3.902105
      pz      :     1.383874  p :     4.266627
      px      :     1.503982
      py      :     1.378771

 14 C s       :     3.159910  s :     3.159910
      pz      :     0.948320  p :     2.866472
      px      :     0.948777
      py      :     0.969374

 15 C s       :     3.165896  s :     3.165896
      pz      :     0.951976  p :     2.919802
      px      :     0.987601
      py      :     0.980225

 16 C s       :     3.161241  s :     3.161241
      pz      :     0.982999  p :     2.927054
      px      :     0.957791
      py      :     0.986264

 17 C s       :     3.164454  s :     3.164454
      pz      :     0.977734  p :     2.919777
      px      :     0.977290
      py      :     0.964753

 18 C s       :     3.161090  s :     3.161090
      pz      :     0.953490  p :     2.927697
      px      :     0.986442
      py      :     0.987765

 19 C s       :     3.165658  s :     3.165658
      pz      :     0.985823  p :     2.917959
      px      :     0.957911
      py      :     0.974226

 20 H s       :     0.910562  s :     0.910562

 21 H s       :     0.912453  s :     0.912453

 22 H s       :     0.913640  s :     0.913640

 23 H s       :     0.785089  s :     0.785089

 24 H s       :     0.901076  s :     0.901076

 25 H s       :     0.901634  s :     0.901634

 26 H s       :     0.901264  s :     0.901264

 27 H s       :     0.901435  s :     0.901435

 28 H s       :     0.902269  s :     0.902269

 29 H s       :     0.903420  s :     0.903420

 30 H s       :     0.902961  s :     0.902961

 31 H s       :     0.903334  s :     0.903334

 32 H s       :     0.903205  s :     0.903205



                     *******************************
                     * LOEWDIN POPULATION ANALYSIS *
                     *******************************

----------------------
LOEWDIN ATOMIC CHARGES
----------------------
   0 H :    0.057971
   1 C :   -0.047065
   2 C :   -0.128850
   3 C :    0.098189
   4 O :   -0.118565
   5 O :   -0.163006
   6 C :   -0.015686
   7 C :   -0.052085
   8 C :   -0.029227
   9 C :   -0.044270
  10 C :   -0.048184
  11 C :   -0.048358
  12 C :    0.091585
  13 O :   -0.120168
  14 C :   -0.030656
  15 C :   -0.046857
  16 C :   -0.049466
  17 C :   -0.043185
  18 C :   -0.049599
  19 C :   -0.044942
  20 H :    0.052437
  21 H :    0.050551
  22 H :    0.049783
  23 H :    0.162899
  24 H :    0.058728
  25 H :    0.057730
  26 H :    0.058190
  27 H :    0.058241
  28 H :    0.057724
  29 H :    0.056442
  30 H :    0.056713
  31 H :    0.056524
  32 H :    0.056462

-------------------------------
LOEWDIN REDUCED ORBITAL CHARGES
-------------------------------
  0 H s       :     0.942029  s :     0.942029

  1 C s       :     3.068693  s :     3.068693
      pz      :     0.986234  p :     2.978372
      px      :     1.026519
      py      :     0.965619

  2 C s       :     3.028492  s :     3.028492
      pz      :     1.004862  p :     3.100358
      px      :     1.060360
      py      :     1.035136

  3 C s       :     3.115831  s :     3.115831
      pz      :     0.934162  p :     2.785979
      px      :     0.966202
      py      :     0.885615

  4 O s       :     3.756698  s :     3.756698
      pz      :     1.510227  p :     4.361866
      px      :     1.670193
      py      :     1.181446

  5 O s       :     3.792740  s :     3.792740
      pz      :     1.661738  p :     4.370266
      px      :     1.408602
      py      :     1.299927

  6 C s       :     3.053518  s :     3.053518
      pz      :     0.997216  p :     2.962168
      px      :     0.991183
      py      :     0.973768

  7 C s       :     3.048926  s :     3.048926
      pz      :     0.996496  p :     3.003159
      px      :     1.016313
      py      :     0.990350

  8 C s       :     3.060713  s :     3.060713
      pz      :     0.998415  p :     2.968514
      px      :     0.989798
      py      :     0.980301

  9 C s       :     3.043101  s :     3.043101
      pz      :     0.983340  p :     3.001170
      px      :     1.000249
      py      :     1.017581

 10 C s       :     3.037146  s :     3.037146
      pz      :     0.997531  p :     3.011038
      px      :     1.016160
      py      :     0.997348

 11 C s       :     3.044191  s :     3.044191
      pz      :     0.990000  p :     3.004166
      px      :     0.999872
      py      :     1.014294

 12 C s       :     3.098721  s :     3.098721
      pz      :     0.935565  p :     2.809694
      px      :     0.957033
      py      :     0.917096

 13 O s       :     3.801771  s :     3.801771
      pz      :     1.397856  p :     4.318397
      px      :     1.508574
      py      :     1.411967

 14 C s       :     3.060408  s :     3.060408
      pz      :     0.987384  p :     2.970248
      px      :     0.985352
      py      :     0.997511

 15 C s       :     3.043220  s :     3.043220
      pz      :     0.995726  p :     3.003637
      px      :     1.010394
      py      :     0.997518

 16 C s       :     3.038008  s :     3.038008
      pz      :     1.009523  p :     3.011458
      px      :     0.997271
      py      :     1.004664

 17 C s       :     3.040479  s :     3.040479
      pz      :     1.005867  p :     3.002706
      px      :     1.003766
      py      :     0.993074

 18 C s       :     3.037641  s :     3.037641
      pz      :     0.996797  p :     3.011958
      px      :     1.009782
      py      :     1.005378

 19 C s       :     3.043202  s :     3.043202
      pz      :     1.010967  p :     3.001741
      px      :     0.997023
      py      :     0.993751

 20 H s       :     0.947563  s :     0.947563

 21 H s       :     0.949449  s :     0.949449

 22 H s       :     0.950217  s :     0.950217

 23 H s       :     0.837101  s :     0.837101

 24 H s       :     0.941272  s :     0.941272

 25 H s       :     0.942270  s :     0.942270

 26 H s       :     0.941810  s :     0.941810

 27 H s       :     0.941759  s :     0.941759

 28 H s       :     0.942276  s :     0.942276

 29 H s       :     0.943558  s :     0.943558

 30 H s       :     0.943287  s :     0.943287

 31 H s       :     0.943476  s :     0.943476

 32 H s       :     0.943538  s :     0.943538



                      *****************************
                      * MAYER POPULATION ANALYSIS *
                      *****************************

  NA   - Mulliken gross atomic population
  ZA   - Total nuclear charge
  QA   - Mulliken gross atomic charge
  VA   - Mayer's total valence
  BVA  - Mayer's bonded valence
  FA   - Mayer's free valence

  ATOM       NA         ZA         QA         VA         BVA        FA
  0 H      0.9014     1.0000     0.0986     0.9903     0.9903     0.0000
  1 C      6.0848     6.0000    -0.0848     3.9462     3.9462    -0.0000
  2 C      6.2334     6.0000    -0.2334     3.9475     3.9475    -0.0000
  3 C      5.8333     6.0000     0.1667     3.8968     3.8968    -0.0000
  4 O      8.1991     8.0000    -0.1991     2.3427     2.3427     0.0000
  5 O      8.2099     8.0000    -0.2099     2.3046     2.3046     0.0000
  6 C      6.0246     6.0000    -0.0246     3.9649     3.9649     0.0000
  7 C      6.0873     6.0000    -0.0873     3.9604     3.9604    -0.0000
  8 C      6.0252     6.0000    -0.0252     3.9643     3.9643    -0.0000
  9 C      6.0830     6.0000    -0.0830     3.9622     3.9622     0.0000
 10 C      6.0875     6.0000    -0.0875     3.9644     3.9644    -0.0000
 11 C      6.0860     6.0000    -0.0860     3.9625     3.9625     0.0000
 12 C      5.8765     6.0000     0.1235     3.9128     3.9128    -0.0000
 13 O      8.1687     8.0000    -0.1687     2.2420     2.2420    -0.0000
 14 C      6.0264     6.0000    -0.0264     3.9644     3.9644    -0.0000
 15 C      6.0857     6.0000    -0.0857     3.9625     3.9625    -0.0000
 16 C      6.0883     6.0000    -0.0883     3.9644     3.9644    -0.0000
 17 C      6.0842     6.0000    -0.0842     3.9638     3.9638     0.0000
 18 C      6.0888     6.0000    -0.0888     3.9646     3.9646     0.0000
 19 C      6.0836     6.0000    -0.0836     3.9625     3.9625     0.0000
 20 H      0.9106     1.0000     0.0894     0.9920     0.9920     0.0000
 21 H      0.9125     1.0000     0.0875     0.9923     0.9923    -0.0000
 22 H      0.9136     1.0000     0.0864     0.9925     0.9925    -0.0000
 23 H      0.7851     1.0000     0.2149     0.9538     0.9538     0.0000
 24 H      0.9011     1.0000     0.0989     0.9902     0.9902     0.0000
 25 H      0.9016     1.0000     0.0984     0.9903     0.9903     0.0000
 26 H      0.9013     1.0000     0.0987     0.9903     0.9903    -0.0000
 27 H      0.9014     1.0000     0.0986     0.9903     0.9903     0.0000
 28 H      0.9023     1.0000     0.0977     0.9904     0.9904     0.0000
 29 H      0.9034     1.0000     0.0966     0.9907     0.9907    -0.0000
 30 H      0.9030     1.0000     0.0970     0.9906     0.9906     0.0000
 31 H      0.9033     1.0000     0.0967     0.9907     0.9907     0.0000
 32 H      0.9032     1.0000     0.0968     0.9906     0.9906     0.0000

  Mayer bond orders larger than 0.100000
B(  0-H ,  1-C ) :   0.9432 B(  1-C ,  2-C ) :   0.9830 B(  1-C ,  3-C ) :   0.8581 
B(  1-C ,  6-C ) :   0.9834 B(  2-C , 20-H ) :   0.9697 B(  2-C , 21-H ) :   0.9736 
B(  2-C , 22-H ) :   0.9731 B(  3-C ,  4-O ) :   1.0944 B(  3-C ,  5-O ) :   1.8892 
B(  4-O ,  5-O ) :   0.2620 B(  4-O , 23-H ) :   0.8843 B(  6-C ,  7-C ) :   1.3909 
B(  6-C ,  9-C ) :   0.1039 B(  6-C , 11-C ) :   1.3714 B(  7-C ,  8-C ) :   1.3834 
B(  7-C , 10-C ) :   0.1040 B(  7-C , 24-H ) :   0.9497 B(  8-C ,  9-C ) :   1.3787 
B(  8-C , 11-C ) :   0.1047 B(  8-C , 12-C ) :   0.9564 B(  9-C , 10-C ) :   1.4323 
B(  9-C , 25-H ) :   0.9529 B( 10-C , 11-C ) :   1.4335 B( 10-C , 26-H ) :   0.9559 
B( 11-C , 27-H ) :   0.9537 B( 12-C , 13-O ) :   1.9057 B( 12-C , 14-C ) :   0.9625 
B( 14-C , 15-C ) :   1.3796 B( 14-C , 17-C ) :   0.1073 B( 14-C , 19-C ) :   1.3761 
B( 15-C , 16-C ) :   1.4363 B( 15-C , 18-C ) :   0.1096 B( 15-C , 28-H ) :   0.9522 
B( 16-C , 17-C ) :   1.4244 B( 16-C , 19-C ) :   0.1108 B( 16-C , 29-H ) :   0.9566 
B( 17-C , 18-C ) :   1.4173 B( 17-C , 30-H ) :   0.9571 B( 18-C , 19-C ) :   1.4449 
B( 18-C , 31-H ) :   0.9565 B( 19-C , 32-H ) :   0.9528 

-------
TIMINGS
-------

Total SCF time: 0 days 0 hours 0 min 7 sec 

Total time                  ....       7.276 sec
Sum of individual times     ....       7.222 sec  ( 99.3%)

SCF preparation             ....       0.286 sec  (  3.9%)
Fock matrix formation       ....       6.856 sec  ( 94.2%)
  Startup                   ....       0.010 sec  (  0.1% of F)
  Split-RI-J                ....       1.736 sec  ( 25.3% of F)
  XC integration            ....       2.026 sec  ( 29.6% of F)
    Basis function eval.    ....       0.989 sec  ( 48.8% of XC)
    Density eval.           ....       0.331 sec  ( 16.3% of XC)
    XC-Functional eval.     ....       0.218 sec  ( 10.8% of XC)
    XC-Potential eval.      ....       0.246 sec  ( 12.1% of XC)
  CPCM terms                ....       3.042 sec  ( 44.4% of F)
Diagonalization             ....       0.000 sec  (  0.0%)
Density matrix formation    ....       0.016 sec  (  0.2%)
Total Energy calculation    ....       0.008 sec  (  0.1%)
Population analysis         ....       0.026 sec  (  0.4%)
Orbital Transformation      ....       0.004 sec  (  0.1%)
Orbital Orthonormalization  ....       0.000 sec  (  0.0%)
DIIS solution               ....       0.003 sec  (  0.0%)
SOSCF solution              ....       0.023 sec  (  0.3%)
Finished LeanSCF after   7.4 sec

Maximum memory used throughout the entire LEANSCF-calculation: 77.2 MB

-------------------------   --------------------
FINAL SINGLE POINT ENERGY      -832.172483503543
-------------------------   --------------------

                                *** OPTIMIZATION RUN DONE ***


------------------------------------------------------------------------------
                              ORCA PROPERTY CALCULATIONS
------------------------------------------------------------------------------

GBWName                                 ... Dexketoprofen\Dexketoprofen_PBE_STO-3G\Dexketoprofen_PBE_STO-3G.orcainp.gbw
Number of atoms                         ...     33
Number of basis functions               ...    109
Max core memory                         ...   1024 MB

Electric properties:
Dipole moment                           ... YES
Quadrupole moment                       ...  NO
Static polarizability (Dipole/Dipole)   ...  NO
Static polarizability (Dipole/Quad.)    ...  NO
Static polarizability (Quad./Quad.)     ...  NO
Static polarizability (Velocity)        ...  NO

Atomic electric properties:
Dipole moment                           ...  NO
Quadrupole moment                       ...  NO
Static polarizability                   ...  NO

Choice of electric origin               ... Center of mass
Position of electric origin             ...     3.548043    -5.512278     1.552211

General magnetic properties:
Magnetizability                         ...  NO

EPR properties:
g-Tensor (aka g-matrix)                 ...  NO
Zero-Field splitting spin-orbit         ...  NO
Zero-field splitting spin-spin          ...  NO
Hyperfine couplings                     ...  NO (   0 nuclei)
Quadrupole couplings                    ...  NO (   0 nuclei)
Contact density                         ...  NO (   0 nuclei)

NMR properties:
Chemical shifts                         ...  NO (   0 nuclei)
Spin-rotation constants                 ...  NO (   0 nuclei)
Spin-spin couplings                     ...  NO (   0 nuclei,    0 pairs)

Choice of magnetic origin               ... GIAO
Position of magnetic origin             ...     0.000000     0.000000     0.000000

Properties with geometric perturbations:
SCF Hessian                             ...  NO
IR spectrum                             ...  NO
VCD spectrum                            ...  NO
X-ray spectroscopy properties:
SCF XES/XAS/RIXS spectra                ...  NO


-------------
DIPOLE MOMENT
-------------

Method             : SCF
Type of density    : Electron Density
Multiplicity       :   1
Irrep              :   0
Energy             :  -832.1724835035433898 Eh
Relativity type    : 
Basis              : AO
                                X                 Y                 Z
Electronic contribution:      2.394877094      -4.564956437       2.507793208
Nuclear contribution   :     -2.719100266       4.026130252      -2.543065098
                        -----------------------------------------
Total Dipole Moment    :     -0.324223172      -0.538826186      -0.035271890
                        -----------------------------------------
Magnitude (a.u.)       :      0.629840004
Magnitude (Debye)      :      1.600926061



--------------------
Rotational spectrum 
--------------------
 
Rotational constants in cm-1:             0.019176             0.007179             0.005805 
Rotational constants in MHz :           574.890725           215.225216           174.039998 

Dipole components along the rotational axes: 
x,y,z [a.u.] :     0.598819    -0.105183     0.164471 
x,y,z [Debye]:     1.522077    -0.267354     0.418051 

 

Dipole moment calculation done in   0.0 sec 

Maximum memory used throughout the entire PROP-calculation: 9.3 MB

--------------------------------
SUGGESTED CITATIONS FOR THIS RUN
--------------------------------

Below you find a list of papers that are relevant to this ORCA run
We neither can nor want to force you to cite these papers, but we appreciate if you do
You receive ORCA, which is the product of decades of hard work by many enthusiastic individuals, for free
The only thing we kindly ask in return is that you cite our papers,
We deeply appreciate it, if you show your appreciation for ORCA by not just citing the generic ORCA reference.

Please note that relegating all ORCA citations to the supporting information does *not* help us.
SI sections are not indexed - citations you put there will not count into any citation statistics
But we need these citations in order to attract the funding resources that allow us to do what we are doing

Therefore, if you are a happy ORCA user, please consider citing a few of the papers listed below in the main body of your paper

In addition to the list printed below, the program has created the file Dexketoprofen\Dexketoprofen_PBE_STO-3G\Dexketoprofen_PBE_STO-3G.orcainp.bibtex that contains the list in bibtex format
You can import this file easily into all common literature databanks and citation aid programs


List of essential papers. We consider these as the minimum necessary citations

  1. Neese,F.
     Software update: the ORCA program system, version 5.0
     WIRES Comput. Molec. Sci., 2022 12(1)e1606
     doi.org/10.1002/wcms.1606

List of papers to cite with high priority. The work reported in these papers was absolutely
necessary for this run to complete.
Our perspective: the developers of density functionals and basis sets usually get cited in chemistry papers
Good! But without the algorithms to do something with them, the functionals or basis sets would not do anything.
Hence, in our opinion, the algorithm design and method developments papers are equally worthy of getting cited

  1. Neese,F.
     An improvement of the resolution of the identity approximation for the formation of the Coulomb matrix
     J. Comp. Chem., 2003 24(14)1740-1747
     doi.org/10.1002/jcc.10318
  2. Garcia-Rates,M.; Neese,F.
     Effect of the Solute Cavity on the Solvation Energy and its Derivatives within the Framework of the Gaussian Charge Scheme
     J. Comput. Chem., 2020 41 922-939
     doi.org/10.1002/jcc.26139
  3. Neese,F.
     The SHARK Integral Generation and Digestion System
     J. Comp. Chem., 2022  1-16
     doi.org/10.1002/jcc.26942

List of suggested additional citations. These are papers that are important in the 'surrounding' of 
of this run, or papers that preceded the highly important papers. If you like your results we are grateful for a citation.

  1. Neese,F.
     The ORCA program system
     WIRES Comput. Molec. Sci., 2012 2(1)73-78
     doi.org/10.1002/wcms.81
  2. Neese,F.
     Software update: the ORCA program system, version 4.0
     WIRES Comput. Molec. Sci., 2018 8(1)1-6
     doi.org/10.1002/wcms.1327
  3. Neese,F.; Wennmohs,F.; Becker,U.; Riplinger,C.
     The ORCA quantum chemistry program package
     J. Chem. Phys., 2020 152 Art. No. L224108
     doi.org/10.1063/5.0004608

List of optional additional citations

  1. Neese,F.
     Approximate second-order SCF convergence for spin unrestricted wavefunctions
     Chem. Phys. Lett., 2000 325(1-3)93-98
     doi.org/10.1016/s0009-2614(00)00662-x

Timings for individual modules:

Sum of individual times          ...      192.614 sec (=   3.210 min)
Startup calculation              ...       12.219 sec (=   0.204 min)   6.3 %
SCF iterations                   ...      112.502 sec (=   1.875 min)  58.4 %
Property calculations            ...        0.067 sec (=   0.001 min)   0.0 %
SCF Gradient evaluation          ...       67.687 sec (=   1.128 min)  35.1 %
Geometry relaxation              ...        0.139 sec (=   0.002 min)   0.1 %
                             ****ORCA TERMINATED NORMALLY****
TOTAL RUN TIME: 0 days 0 hours 3 minutes 13 seconds 814 msec
