
                                 *****************
                                 * O   R   C   A *
                                 *****************

                                            #,                                       
                                            ###                                      
                                            ####                                     
                                            #####                                    
                                            ######                                   
                                           ########,                                 
                                     ,,################,,,,,                         
                               ,,#################################,,                 
                          ,,##########################################,,             
                       ,#########################################, ''#####,          
                    ,#############################################,,   '####,        
                  ,##################################################,,,,####,       
                ,###########''''           ''''###############################       
              ,#####''   ,,,,##########,,,,          '''####'''          '####       
            ,##' ,,,,###########################,,,                        '##       
           ' ,,###''''                  '''############,,,                           
         ,,##''                                '''############,,,,        ,,,,,,###''
      ,#''                                            '''#######################'''  
     '                                                          ''''####''''         
             ,#######,   #######,   ,#######,      ##                                
            ,#'     '#,  ##    ##  ,#'     '#,    #''#        ,####,   ,####,        
            ##       ##  ##   ,#'  ##            #'  '#       #'       #'  '#        
            ##       ##  #######   ##           ,######,      #####,   #    #        
            '#,     ,#'  ##    ##  '#,     ,#' ,#      #,     #,   #   #,  ,#        
             '#######'   ##     ##  '#######'  #'      '#     '####' # '####'        



                #########################################################
                #                        -***-                          #
                #          Department of theory and spectroscopy        #
                #                                                       #
                #                      Frank Neese                      #
                #                                                       #
                #     Directorship, Architecture, Infrastructure        #
                #                    SHARK, DRIVERS                     #
                #        Core code/Algorithms in most modules           #
                #                                                       #
                #        Max Planck Institute fuer Kohlenforschung      #
                #                Kaiser Wilhelm Platz 1                 #
                #                 D-45470 Muelheim/Ruhr                 #
                #                      Germany                          #
                #                                                       #
                #                  All rights reserved                  #
                #                        -***-                          #
                #########################################################


                         Program Version 6.0.0  -   RELEASE   -


 With contributions from (in alphabetic order):
   Daniel Aravena         : Magnetic Suceptibility
   Michael Atanasov       : Ab Initio Ligand Field Theory (pilot matlab implementation)
   Alexander A. Auer      : GIAO ZORA, VPT2 properties, NMR spectrum
   Ute Becker             : All parallelization in ORCA, NUMFREQ, NUMCALC
   Giovanni Bistoni       : ED, misc. LED, open-shell LED, HFLD
   Martin Brehm           : Molecular dynamics
   Dmytro Bykov           : pre 5.0 version of the SCF Hessian
   Marcos Casanova-Páez   : Triplet and SCS-CIS(D). UHF-(DLPNO)-IP/EA/STEOM-CCSD. UHF-CVS-IP/STEOM-CCSD
   Vijay G. Chilkuri      : MRCI spin determinant printing, contributions to CSF-ICE
   Pauline Colinet        : FMM embedding
   Dipayan Datta          : RHF DLPNO-CCSD density
   Achintya Kumar Dutta   : EOM-CC, STEOM-CC
   Nicolas Foglia         : Exact transition moments, OPA infrastructure, MCD improvements
   Dmitry Ganyushin       : Spin-Orbit,Spin-Spin,Magnetic field MRCI
   Miquel Garcia          : C-PCM and meta-GGA Hessian, CCSD/C-PCM, Gaussian charge scheme
   Tiago L. C. Gouveia    : GS-ROHF, GS-ROCIS
   Yang Guo               : DLPNO-NEVPT2, F12-NEVPT2, CIM, IAO-localization
   Andreas Hansen         : Spin unrestricted coupled pair/coupled cluster methods
   Ingolf Harden          : AUTO-CI MPn and infrastructure 
   Benjamin Helmich-Paris : MC-RPA, TRAH-(SCF,CASSCF), AVAS, COSX integrals, SCF dyn. polar.
   Lee Huntington         : MR-EOM, pCC
   Robert Izsak           : Overlap fitted RIJCOSX, COSX-SCS-MP3, EOM
   Riya Kayal             : Wick's Theorem for AUTO-CI, AUTO-CI UHF-CCSDT
   Emily Kempfer          : AUTO-CI, RHF CISDT and CCSDT
   Christian Kollmar      : KDIIS, OOCD, Brueckner-CCSD(T), CCSD density, CASPT2, CASPT2-K, improved NEVPT2
   Axel Koslowski         : Symmetry handling
   Simone Kossmann        : Meta GGA functionals, TD-DFT gradient, OOMP2, (MP2 Hessian; deprecated post 5.0)
   Lucas Lang             : DCDCAS
   Marvin Lechner         : AUTO-CI (C++ implementation), FIC-MRCC
   Spencer Leger          : CASSCF response
   Dagmar Lenk            : GEPOL surface, SMD, ORCA-2-JSON
   Dimitrios Liakos       : Extrapolation schemes; Compound Job, initial MDCI parallelization
   Dimitrios Manganas     : Further ROCIS development; embedding schemes. LFT, Crystal Embedding
   Dimitrios Pantazis     : SARC Basis sets
   Anastasios Papadopoulos: AUTO-CI, single reference methods and gradients
   Taras Petrenko         : pre 6.0 DFT Hessian and TD-DFT gradient, (ASA, deprecated), ECA, 1-Electron XAS/XES, NRVS
   Peter Pinski           : DLPNO-MP2, DLPNO-MP2 Gradient
   Christoph Reimann      : Effective Core Potentials
   Marius Retegan         : Local ZFS, SOC
   Christoph Riplinger    : Optimizer, TS searches, QM/MM, DLPNO-CCSD(T), (RO)-DLPNO pert. Triples
   Michael Roemelt        : Original ROCIS implementation
   Masaaki Saitow         : Open-shell DLPNO-CCSD energy and density
   Barbara Sandhoefer     : DKH picture change effects
   Kantharuban Sivalingam : CASSCF convergence/infrastructure, NEVPT2 and variants, FIC-MRCI
   Bernardo de Souza      : ESD, SOC TD-DFT
   Georgi Stoychev        : AutoAux, RI-MP2 NMR, DLPNO-MP2 response, X2C
   Van Anh Tran           : RI-MP2 g-tensors
   Willem Van den Heuvel  : Paramagnetic NMR
   Zikuan Wang            : NOTCH, Electric field optimization 
   Frank Wennmohs         : Technical directorship and infrastructure
   Hang Xu                : AUTO-CI-Response properties 


 We gratefully acknowledge several colleagues who have allowed us to
 interface, adapt or use parts of their codes:
   Stefan Grimme, W. Hujo, H. Kruse, P. Pracht,  : VdW corrections, initial TS optimization,
                  C. Bannwarth, S. Ehlert,         DFT functionals, gCP, sTDA/sTD-DF
                  L. Wittmann, M. Mueller
   Ed Valeev, F. Pavosevic, A. Kumar             : LibInt (2-el integral package), F12 methods
   Garnet Chan, S. Sharma, J. Yang, R. Olivares  : DMRG
   Ulf Ekstrom                                   : XCFun DFT Library
   Mihaly Kallay                                 : mrcc  (arbitrary order and MRCC methods)
   Frank Weinhold                                : gennbo (NPA and NBO analysis)
   Simon Mueller                                 : openCOSMO-RS
   Christopher J. Cramer and Donald G. Truhlar   : smd solvation model
   Lars Goerigk                                  : TD-DFT with DH, B97 family of functionals
   V. Asgeirsson, H. Jonsson                     : NEB implementation
   FAccTs GmbH                                   : IRC, NEB, NEB-TS, DLPNO-Multilevel, CI-OPT
                                                   MM, QMMM, 2- and 3-layer-ONIOM, Crystal-QMMM,
                                                   LR-CPCM, SF, NACMEs, symmetry and pop. for TD-DFT,
                                                   nearIR, NL-DFT gradient (VV10), updates on ESD,
                                                   ML-optimized integration grids, MBIS, APM,
                                                   GOAT, DOCKER, SOLVATOR, interface openCOSMO-RS
   S Lehtola, MJT Oliveira, MAL Marques          : LibXC Library
   Liviu Ungur et al                             : ANISO software


 Your calculation uses the libint2 library for the computation of 2-el integrals
 For citations please refer to: http://libint.valeyev.net

 Your ORCA version has been built with support for libXC version: 6.2.2
 For citations please refer to: https://libxc.gitlab.io

 This ORCA versions uses:
   CBLAS   interface :  Fast vector & matrix operations
   LAPACKE interface :  Fast linear algebra routines
   Shared memory     :  Shared parallel matrices


Warning: RI is on but no J-basis has been assigned. Assigning Def2/J (nothing to worry about!)
================================================================================

----- Orbital basis set information -----
Your calculation utilizes the basis: STO-3G
   H-Ne       : W. J. Hehre, R. F. Stewart and J. A. Pople, J. Chem. Phys. 2657 (1969).
   Na-Ar      : W. J. Hehre, R. Ditchfield, R. F. Stewart and J. A. Pople, J. Chem. Phys. 2769 (1970).
   K,Ca,Ga-Kr : W. J. Pietro, B. A. Levy, W. J. Hehre and R. F. Stewart, J. Am. Chem. Soc. 19, 2225 (1980).
   Sc-Zn,Y-Cd : W. J. Pietro and W. J. Hehre, J. Comp. Chem. 4, 241 (1983).

----- AuxJ basis set information -----
Your calculation utilizes the auxiliary basis: def2/J
   F. Weigend, Phys. Chem. Chem. Phys. 8, 1057 (2006).

================================================================================
                                        WARNINGS
                       Please study these warnings very carefully!
================================================================================

WARNING: Old DensityContainer found on disk!
         Will remove this file - 
         If you want to keep old densities, please start your calculation with a different basename. 

INFO   : Checking CIS options ...

WARNING: CIS/ROCIS methods need fully converged wavefunctions
  ===> : Setting SCFConvForced true
         You can overwrite this default with %scf ConvForced false 


================================================================================
                                       INPUT FILE
================================================================================
NAME = Dexketoprofen\Dexketoprofen_PBE_STO-3G\Dexketoprofen_PBE_STO-3G.orcainp.xyz
|  1> # ORCA xyz input file 
|  2> # 
|  3> !PBE STO-3G CPCM(WATER) LARGEPRINT 
|  4> %tddft
|  5>     NRoots 30
|  6>     MaxDim 5
|  7> end
|  8> * xyz 0 1
|  9>   H           1.01941858032445     -0.27735004340889      0.22048324247669
| 10>   C           2.08707054586331     -0.12976314230127     -0.06283772850604
| 11>   C           2.13853587609180      0.73615389514027     -1.35988160989711
| 12>   C           2.74730410706076      0.69753236518141      1.15063291098798
| 13>   O           3.35541655872968     -0.09890697224766      2.16528054570354
| 14>   O           2.72027872192588      1.95230977977141      1.25924260295559
| 15>   C           2.72701480517576     -1.52713609175848     -0.22386980112516
| 16>   C           1.99337534471182     -2.69366374598183      0.12896680355171
| 17>   C           2.55969777017371     -3.98981306669477     -0.01295501848809
| 18>   C           3.87653984360273     -4.11576978468726     -0.53680481571061
| 19>   C           4.62166460619619     -2.96545926132920     -0.87734423255512
| 20>   C           4.05460049949361     -1.68070669217790     -0.72136870006983
| 21>   C           1.76455563397912     -5.28101437625324      0.28965898642476
| 22>   O           1.97480360726219     -6.34769183158615     -0.37264348043151
| 23>   C           0.71295921929111     -5.23748353170208      1.41876034910618
| 24>   C           0.83523905235923     -4.38603034219409      2.55232093565270
| 25>   C          -0.12264565297675     -4.43883341096666      3.59017707658480
| 26>   C          -1.21396508035592     -5.33596583244675      3.50688435341234
| 27>   C          -1.33896561411003     -6.19561354785291      2.38816491855158
| 28>   C          -0.37652255415421     -6.15245118977850      1.35724357415104
| 29>   H           1.75305060862546      1.74864902859872     -1.13357388686365
| 30>   H           1.51602638385834      0.28238349838977     -2.15355201702974
| 31>   H           3.17531260099024      0.83162732644814     -1.73177284550011
| 32>   H           3.25632772877301     -1.05982898359935      1.78015148050545
| 33>   H           0.95840486291252     -2.58691513735074      0.50101592288583
| 34>   H           4.30483422198363     -5.12650405392919     -0.66775317413247
| 35>   H           5.64923743719032     -3.06821635751232     -1.26982471794102
| 36>   H           4.64349831462568     -0.78535490737445     -0.99004799361398
| 37>   H           1.69309963954206     -3.69471070070090      2.62885576135700
| 38>   H          -0.01662916258586     -3.77852924535136      4.46942886297269
| 39>   H          -1.96406355490343     -5.37058030832166      4.31728845282451
| 40>   H          -2.18659900114253     -6.90116474608105      2.32467429091106
| 41>   H          -0.45270595051393     -6.82676858994101      0.48423895084900
| 42> *
| 43> 
| 44>                          ****END OF INPUT****
================================================================================

                       ****************************
                       * Single Point Calculation *
                       ****************************

---------------------------------
CARTESIAN COORDINATES (ANGSTROEM)
---------------------------------
  H      1.019419   -0.277350    0.220483
  C      2.087071   -0.129763   -0.062838
  C      2.138536    0.736154   -1.359882
  C      2.747304    0.697532    1.150633
  O      3.355417   -0.098907    2.165281
  O      2.720279    1.952310    1.259243
  C      2.727015   -1.527136   -0.223870
  C      1.993375   -2.693664    0.128967
  C      2.559698   -3.989813   -0.012955
  C      3.876540   -4.115770   -0.536805
  C      4.621665   -2.965459   -0.877344
  C      4.054600   -1.680707   -0.721369
  C      1.764556   -5.281014    0.289659
  O      1.974804   -6.347692   -0.372643
  C      0.712959   -5.237484    1.418760
  C      0.835239   -4.386030    2.552321
  C     -0.122646   -4.438833    3.590177
  C     -1.213965   -5.335966    3.506884
  C     -1.338966   -6.195614    2.388165
  C     -0.376523   -6.152451    1.357244
  H      1.753051    1.748649   -1.133574
  H      1.516026    0.282383   -2.153552
  H      3.175313    0.831627   -1.731773
  H      3.256328   -1.059829    1.780151
  H      0.958405   -2.586915    0.501016
  H      4.304834   -5.126504   -0.667753
  H      5.649237   -3.068216   -1.269825
  H      4.643498   -0.785355   -0.990048
  H      1.693100   -3.694711    2.628856
  H     -0.016629   -3.778529    4.469429
  H     -1.964064   -5.370580    4.317288
  H     -2.186599   -6.901165    2.324674
  H     -0.452706   -6.826769    0.484239

----------------------------
CARTESIAN COORDINATES (A.U.)
----------------------------
  NO LB      ZA    FRAG     MASS         X           Y           Z
   0 H     1.0000    0     1.008    1.926422   -0.524116    0.416653
   1 C     6.0000    0    12.011    3.943992   -0.245217   -0.118746
   2 C     6.0000    0    12.011    4.041247    1.391129   -2.569804
   3 C     6.0000    0    12.011    5.191652    1.318145    2.174381
   4 O     8.0000    0    15.999    6.340818   -0.186907    4.091787
   5 O     8.0000    0    15.999    5.140582    3.689331    2.379624
   6 C     6.0000    0    12.011    5.153311   -2.885869   -0.423053
   7 C     6.0000    0    12.011    3.766933   -5.090287    0.243712
   8 C     6.0000    0    12.011    4.837128   -7.539654   -0.024481
   9 C     6.0000    0    12.011    7.325599   -7.777678   -1.014414
  10 C     6.0000    0    12.011    8.733680   -5.603906   -1.657940
  11 C     6.0000    0    12.011    7.662085   -3.176075   -1.363189
  12 C     6.0000    0    12.011    3.334527   -9.979671    0.547376
  13 O     8.0000    0    15.999    3.731838  -11.995399   -0.704194
  14 C     6.0000    0    12.011    1.347298   -9.897410    2.681069
  15 C     6.0000    0    12.011    1.578373   -8.288396    4.823188
  16 C     6.0000    0    12.011   -0.231767   -8.388180    6.784451
  17 C     6.0000    0    12.011   -2.294062  -10.083514    6.627051
  18 C     6.0000    0    12.011   -2.530278  -11.708013    4.512978
  19 C     6.0000    0    12.011   -0.711525  -11.626448    2.564819
  20 H     1.0000    0     1.008    3.312786    3.304468   -2.142144
  21 H     1.0000    0     1.008    2.864875    0.533627   -4.069624
  22 H     1.0000    0     1.008    6.000471    1.571548   -3.272576
  23 H     1.0000    0     1.008    6.153568   -2.002787    3.363999
  24 H     1.0000    0     1.008    1.811123   -4.888561    0.946783
  25 H     1.0000    0     1.008    8.134958   -9.687689   -1.261871
  26 H     1.0000    0     1.008   10.675512   -5.798089   -2.399621
  27 H     1.0000    0     1.008    8.774940   -1.484106   -1.870920
  28 H     1.0000    0     1.008    3.199495   -6.981991    4.967817
  29 H     1.0000    0     1.008   -0.031425   -7.140385    8.445997
  30 H     1.0000    0     1.008   -3.711542  -10.148926    8.158493
  31 H     1.0000    0     1.008   -4.132073  -13.041311    4.392998
  32 H     1.0000    0     1.008   -0.855490  -12.900723    0.915079

--------------------------------
INTERNAL COORDINATES (ANGSTROEM)
--------------------------------
 H      0   0   0     0.000000000000     0.00000000     0.00000000
 C      1   0   0     1.114420650157     0.00000000     0.00000000
 C      2   1   0     1.560379385342   108.44642207     0.00000000
 C      2   1   3     1.610228929360   105.62077867   116.87522609
 O      4   2   1     1.426052661970   115.09376585    92.59489084
 O      4   2   1     1.259759023304   124.60521755   274.59358335
 C      2   1   3     1.545351462714   107.66614456   236.60178426
 C      7   2   1     1.422500367528   120.13963379   353.14650762
 C      8   7   2     1.421571649526   121.16341328   179.86685299
 C      9   8   7     1.422798914538   119.09009728   359.04076955
 C     10   9   8     1.412229551597   120.33161249     1.64754068
 C     11  10   9     1.412968234528   120.14922306   358.90551377
 C      9   8   7     1.546294627336   122.47713969   183.33157500
 O     13   9   8     1.273047352454   120.85886708   146.84487754
 C     13   9   8     1.543573723870   118.02989456   326.71328020
 C     15  13   9     1.422984362131   122.75434076   329.89093590
 C     16  15  13     1.413321139041   120.29046093   183.34201303
 C     17  16  15     1.415189864287   120.20611688   359.75392795
 C     18  17  16     1.416387129981   119.95334618     0.76738164
 C     19  18  17     1.411013271076   119.88853245   359.81760219
 H      3   2   1     1.106779324082   109.03901666    65.79021626
 H      3   2   1     1.106046272109   110.50191858   305.97297628
 H      3   2   1     1.105587737131   111.00554327   185.19913346
 H      5   4   2     1.039958703499   102.23503842     4.12317305
 H      8   7   2     1.104979506976   119.16694337     1.06394292
 H     10   9   8     1.105516761585   118.88891974   181.40580852
 H     11  10   9     1.104765076938   120.04375138   179.10335277
 H     12  11  10     1.104827596504   119.74232799   180.01099805
 H     16  15  13     1.104402649988   119.76908002     2.20720809
 H     17  16  15     1.104683118016   119.80878298   179.63182173
 H     18  17  16     1.104807986848   120.01665260   180.34731399
 H     19  18  17     1.104679099074   120.04997813   179.60053125
 H     20  19  18     1.105732760820   120.74361092   179.15928528

---------------------------
INTERNAL COORDINATES (A.U.)
---------------------------
 H      0   0   0     0.000000000000     0.00000000     0.00000000
 C      1   0   0     2.105949826783     0.00000000     0.00000000
 C      2   1   0     2.948689703313   108.44642207     0.00000000
 C      2   1   3     3.042891689407   105.62077867   116.87522609
 O      4   2   1     2.694848983674   115.09376585    92.59489084
 O      4   2   1     2.380599548781   124.60521755   274.59358335
 C      2   1   3     2.920291045185   107.66614456   236.60178426
 C      7   2   1     2.688136120030   120.13963379   353.14650762
 C      8   7   2     2.686381097351   121.16341328   179.86685299
 C      9   8   7     2.688700292117   119.09009728   359.04076955
 C     10   9   8     2.668727090748   120.33161249     1.64754068
 C     11  10   9     2.670122999188   120.14922306   358.90551377
 C      9   8   7     2.922073368018   122.47713969   183.33157500
 O     13   9   8     2.405710851651   120.85886708   146.84487754
 C     13   9   8     2.916931605631   118.02989456   326.71328020
 C     15  13   9     2.689050737281   122.75434076   329.89093590
 C     16  15  13     2.670789892068   120.29046093   183.34201303
 C     17  16  15     2.674321271003   120.20611688   359.75392795
 C     18  17  16     2.676583775276   119.95334618     0.76738164
 C     19  18  17     2.666428653662   119.88853245   359.81760219
 H      3   2   1     2.091509813201   109.03901666    65.79021626
 H      3   2   1     2.090124545730   110.50191858   305.97297628
 H      3   2   1     2.089258040200   111.00554327   185.19913346
 H      5   4   2     1.965237140200   102.23503842     4.12317305
 H      8   7   2     2.088108651781   119.16694337     1.06394292
 H     10   9   8     2.089123915856   118.88891974   181.40580852
 H     11  10   9     2.087703437733   120.04375138   179.10335277
 H     12  11  10     2.087821582592   119.74232799   180.01099805
 H     16  15  13     2.087018550055   119.76908002     2.20720809
 H     17  16  15     2.087548557817   119.80878298   179.63182173
 H     18  17  16     2.087784525711   120.01665260   180.34731399
 H     19  18  17     2.087540963117   120.04997813   179.60053125
 H     20  19  18     2.089532095254   120.74361092   179.15928528

---------------------
BASIS SET INFORMATION
---------------------
There are 3 groups of distinct atoms

 Group   1 Type H   : 3s contracted to 1s pattern {3}
 Group   2 Type C   : 6s3p contracted to 2s1p pattern {33/3}
 Group   3 Type O   : 6s3p contracted to 2s1p pattern {33/3}

Atom   0H    basis set group =>   1
Atom   1C    basis set group =>   2
Atom   2C    basis set group =>   2
Atom   3C    basis set group =>   2
Atom   4O    basis set group =>   3
Atom   5O    basis set group =>   3
Atom   6C    basis set group =>   2
Atom   7C    basis set group =>   2
Atom   8C    basis set group =>   2
Atom   9C    basis set group =>   2
Atom  10C    basis set group =>   2
Atom  11C    basis set group =>   2
Atom  12C    basis set group =>   2
Atom  13O    basis set group =>   3
Atom  14C    basis set group =>   2
Atom  15C    basis set group =>   2
Atom  16C    basis set group =>   2
Atom  17C    basis set group =>   2
Atom  18C    basis set group =>   2
Atom  19C    basis set group =>   2
Atom  20H    basis set group =>   1
Atom  21H    basis set group =>   1
Atom  22H    basis set group =>   1
Atom  23H    basis set group =>   1
Atom  24H    basis set group =>   1
Atom  25H    basis set group =>   1
Atom  26H    basis set group =>   1
Atom  27H    basis set group =>   1
Atom  28H    basis set group =>   1
Atom  29H    basis set group =>   1
Atom  30H    basis set group =>   1
Atom  31H    basis set group =>   1
Atom  32H    basis set group =>   1

-------------------------
BASIS SET IN INPUT FORMAT
-------------------------

 # Basis set for element : H 
 NewGTO H 
 S 3 
   1       3.4252509100      0.1543289707
   2       0.6239137300      0.5353281424
   3       0.1688554000      0.4446345420
  end;

 # Basis set for element : C 
 NewGTO C 
 S 3 
   1      71.6168370000      0.1543289700
   2      13.0450960000      0.5353281400
   3       3.5305122000      0.4446345400
 S 3 
   1       2.9412494000     -0.0999672301
   2       0.6834831000      0.3995128303
   3       0.2222899000      0.7001154705
 P 3 
   1       2.9412494000      0.1559162721
   2       0.6834831000      0.6076837282
   3       0.2222899000      0.3919573953
  end;

 # Basis set for element : O 
 NewGTO O 
 S 3 
   1     130.7093200000      0.1543289687
   2      23.8088610000      0.5353281356
   3       6.4436083000      0.4446345363
 S 3 
   1       5.0331513000     -0.0999672287
   2       1.1695961000      0.3995128246
   3       0.3803890000      0.7001154606
 P 3 
   1       5.0331513000      0.1559162685
   2       1.1695961000      0.6076837141
   3       0.3803890000      0.3919573862
  end;

---------------------------------
AUXILIARY/J BASIS SET INFORMATION
---------------------------------
There are 3 groups of distinct atoms

 Group   1 Type H   : 5s2p1d contracted to 3s1p1d pattern {311/2/1}
 Group   2 Type C   : 12s5p4d2f1g contracted to 6s4p3d1f1g pattern {711111/2111/211/2/1}
 Group   3 Type O   : 12s5p4d2f1g contracted to 6s4p3d1f1g pattern {711111/2111/211/2/1}

Atom   0H    basis set group =>   1
Atom   1C    basis set group =>   2
Atom   2C    basis set group =>   2
Atom   3C    basis set group =>   2
Atom   4O    basis set group =>   3
Atom   5O    basis set group =>   3
Atom   6C    basis set group =>   2
Atom   7C    basis set group =>   2
Atom   8C    basis set group =>   2
Atom   9C    basis set group =>   2
Atom  10C    basis set group =>   2
Atom  11C    basis set group =>   2
Atom  12C    basis set group =>   2
Atom  13O    basis set group =>   3
Atom  14C    basis set group =>   2
Atom  15C    basis set group =>   2
Atom  16C    basis set group =>   2
Atom  17C    basis set group =>   2
Atom  18C    basis set group =>   2
Atom  19C    basis set group =>   2
Atom  20H    basis set group =>   1
Atom  21H    basis set group =>   1
Atom  22H    basis set group =>   1
Atom  23H    basis set group =>   1
Atom  24H    basis set group =>   1
Atom  25H    basis set group =>   1
Atom  26H    basis set group =>   1
Atom  27H    basis set group =>   1
Atom  28H    basis set group =>   1
Atom  29H    basis set group =>   1
Atom  30H    basis set group =>   1
Atom  31H    basis set group =>   1
Atom  32H    basis set group =>   1

-------------------------------------
AUXILIARY/J BASIS SET IN INPUT FORMAT
-------------------------------------

 # Auxiliary/J basis set for element : H 
 NewAuxJGTO H 
 S 3 
   1      15.6752927000      0.1007184237
   2       3.6063578000      0.3404257499
   3       1.2080016000      0.6491996172
 S 1 
   1       0.4726794000      1.0000000000
 S 1 
   1       0.2018100000      1.0000000000
 P 2 
   1       2.0281365000      0.5596620919
   2       0.5358730000      0.5596620919
 D 1 
   1       2.2165124000      1.0000000000
  end;

 # Auxiliary/J basis set for element : C 
 NewAuxJGTO C 
 S 7 
   1    1861.0916331000      0.0134602335
   2     642.9939764000      0.0299160374
   3     235.1105725000      0.1008649584
   4      90.7028894000      0.2370970548
   5      36.7794552000      0.3924037254
   6      15.6046273000      0.3195862154
   7       6.8907294000      0.0530104441
 S 1 
   1       3.1478850000     -1.0000000000
 S 1 
   1       1.4777287000      1.0000000000
 S 1 
   1       0.7076466000      1.0000000000
 S 1 
   1       0.3430122000      1.0000000000
 S 1 
   1       0.1669453000      1.0000000000
 P 2 
   1      13.5472892000     -0.6769313712
   2       5.4669419000     -0.3779500978
 P 1 
   1       2.1751721000      1.0000000000
 P 1 
   1       0.8582194000      1.0000000000
 P 1 
   1       0.3376720000      1.0000000000
 D 2 
   1       5.9287253000     -0.3533329857
   2       1.9809209000     -0.7456525731
 D 1 
   1       0.8055417000     -1.0000000000
 D 1 
   1       0.3531244000     -1.0000000000
 F 2 
   1       1.6755626000      0.6311076882
   2       0.5997536000      0.4968166032
 G 1 
   1       1.0024600000     -1.0000000000
  end;

 # Auxiliary/J basis set for element : O 
 NewAuxJGTO O 
 S 7 
   1    2876.8216605000      0.0168151159
   2    1004.7443032000      0.0340137548
   3     369.7579954000      0.1194951309
   4     142.9442404000      0.2664627624
   5      57.8366425000      0.4202764046
   6      24.3864983000      0.2765077335
   7      10.6622662000      0.0057008815
 S 1 
   1       4.8070437000     -1.0000000000
 S 1 
   1       2.2210770000      1.0000000000
 S 1 
   1       1.0447795000      1.0000000000
 S 1 
   1       0.4968425000      1.0000000000
 S 1 
   1       0.2371384000      1.0000000000
 P 2 
   1      64.2613382000     -0.2731534179
   2      16.3006076000     -0.8168011598
 P 1 
   1       4.3550542000      1.0000000000
 P 1 
   1       1.2019554000      1.0000000000
 P 1 
   1       0.3354196000      1.0000000000
 D 2 
   1       9.2146611000     -0.4661230638
   2       2.8435251000     -0.6600908911
 D 1 
   1       0.9955759000     -1.0000000000
 D 1 
   1       0.3649441000     -1.0000000000
 F 2 
   1       2.6420115000      0.5931563945
   2       0.7345613000      0.5931563945
 G 1 
   1       1.3931000000     -1.0000000000
  end;


Checking for AutoStart:
The File: Dexketoprofen\Dexketoprofen_PBE_STO-3G\Dexketoprofen_PBE_STO-3G.orcainp.gbw exists
Trying to determine its content:
     ... Fine, the file contains calculation information
     ... Fine, the calculation information was read
     ... Fine, the file contains a basis set
     ... Fine, the basis set was read
     ... Fine, the file contains a geometry
     ... Fine, the geometry was read
     ... Fine, the file contains a set of orbitals
     ... Fine, the orbitals can be read
     => possible old guess file was deleted
     => GBW file was renamed to GES file
     => GES file is set as startup file
     => Guess is set to MORead
     ... now leaving AutoStart

------------------------------------------------------------------------------
                             ORCA STARTUP CALCULATIONS
                           -- RI-GTO INTEGRALS CHOSEN --
------------------------------------------------------------------------------
------------------------------------------------------------------------------
                   ___                                                        
                  /   \      - P O W E R E D   B Y -                         
                 /     \                                                     
                 |  |  |   _    _      __       _____    __    __             
                 |  |  |  | |  | |    /  \     |  _  \  |  |  /  |          
                  \  \/   | |  | |   /    \    | | | |  |  | /  /          
                 / \  \   | |__| |  /  /\  \   | |_| |  |  |/  /          
                |  |  |   |  __  | /  /__\  \  |    /   |      \           
                |  |  |   | |  | | |   __   |  |    \   |  |\   \          
                \     /   | |  | | |  |  |  |  | |\  \  |  | \   \       
                 \___/    |_|  |_| |__|  |__|  |_| \__\ |__|  \__/        
                                                                              
                      - O R C A' S   B I G   F R I E N D -                    
                                      &                                       
                       - I N T E G R A L  F E E D E R -                       
                                                                              
 v1 FN, 2020, v2 2021, v3 2022-2024                                           
------------------------------------------------------------------------------


----------------------
SHARK INTEGRAL PACKAGE
----------------------

Number of atoms                             ...     33
Number of basis functions                   ...    109
Number of shells                            ...     71
Maximum angular momentum                    ...      1
Integral batch strategy                     ... SHARK/LIBINT Hybrid
RI-J (if used) integral strategy            ... SPLIT-RIJ (Revised 2003 algorithm where possible)
Printlevel                                  ...      1
Contraction scheme used                     ... SEGMENTED contraction
Prescreening option                         ... SCHWARTZ
   Thresh                                   ... 1.000e-10
   Tcut                                     ... 1.000e-11
   Tpresel                                  ... 1.000e-11 
Coulomb Range Separation                    ... NOT USED
Exchange Range Separation                   ... NOT USED
Multipole approximations                    ... NOT USED
Finite Nucleus Model                        ... NOT USED
CABS basis                                  ... NOT available
Auxiliary Coulomb fitting basis             ... AVAILABLE
   # of basis functions in Aux-J            ...   1085
   # of shells in Aux-J                     ...    355
   Maximum angular momentum in Aux-J        ...      4
Auxiliary J/K fitting basis                 ... NOT available
Auxiliary Correlation fitting basis         ... NOT available
Auxiliary 'external' fitting basis          ... NOT available

Checking pre-screening integrals            ... done (  0.0 sec) Dimension = 71
Check shell pair data                       ... done (  0.0 sec)
Shell pair information
Shell pair cut-off parameter TPreSel        ...   1.0e-11
Total number of shell pairs                 ...      2556
Shell pairs after pre-screening             ...      1993
Total number of primitive shell pairs       ...     23004
Primitive shell pairs kept                  ...     11081
          la=0 lb=0:    985 shell pairs
          la=1 lb=0:    829 shell pairs
          la=1 lb=1:    179 shell pairs

Calculating one electron integrals          ... done (  0.0 sec)
Calculating RI/J V-Matrix + Cholesky decomp.... done (  0.0 sec)
Calculating Nuclear repulsion               ... done (  0.0 sec) ENN=   1291.242023634800 Eh

Diagonalization of the overlap matrix:
Smallest eigenvalue                        ... 1.834e-01
Time for diagonalization                   ...    0.001 sec
Threshold for overlap eigenvalues          ... 1.000e-07
Number of eigenvalues below threshold      ... 0
Time for construction of square roots      ...    0.001 sec
Total time needed                          ...    0.003 sec

-------------------
DFT GRID GENERATION
-------------------

General Integration Accuracy     IntAcc      ... 4.388
Radial Grid Type                 RadialGrid  ... OptM3 with GC (2021)
Angular Grid (max. ang.)         AngularGrid ... 4 (Lebedev-302)
Angular grid pruning method      GridPruning ... 4 (adaptive)
Weight generation scheme         WeightScheme... mBecke (2022)
Basis function cutoff            BFCut       ... 1.0000e-10
Integration weight cutoff        WCut        ... 1.0000e-14
Partially contracted basis set               ... off
Rotationally invariant grid construction     ... off
Angular grids for H and He will be reduced by one unit

Total number of grid points                  ...   158648
Total number of batches                      ...     2495
Average number of points per batch           ...       63
Average number of grid points per atom       ...     4808
Initializing property integral containers    ... done (  0.0 sec)

SHARK setup successfully completed in   0.9 seconds

Maximum memory used throughout the entire STARTUP-calculation: 55.1 MB
-------------------------------------------------------------------------------
                                 ORCA GUESS
                   Start orbitals & Density for SCF / CASSCF
-------------------------------------------------------------------------------

------------
SCF SETTINGS
------------
Hamiltonian:
 Density Functional     Method          .... DFT(GTOs)
 Exchange Functional    Exchange        .... PBE
   PBE kappa parameter   XKappa         ....  0.804000
   PBE mue parameter    XMuePBE         ....  0.219520
 Correlation Functional Correlation     .... PBE
   PBE beta parameter  CBetaPBE         ....  0.066725
 LDA part of GGA corr.  LDAOpt          .... PW91-LDA
 Gradients option       PostSCFGGA      .... off
   NL short-range parameter             ....  6.400000
 RI-approximation to the Coulomb term is turned on
   Number of AuxJ basis functions       .... 1085


General Settings:
 Integral files         IntName         .... Dexketoprofen\Dexketoprofen_PBE_STO-3G\Dexketoprofen_PBE_STO-3G.orcainp
 Hartree-Fock type      HFTyp           .... RHF
 Total Charge           Charge          ....    0
 Multiplicity           Mult            ....    1
 Number of Electrons    NEL             ....  134
 Basis Dimension        Dim             ....  109
 Nuclear Repulsion      ENuc            ....   1291.2420236348 Eh

Convergence Acceleration:
 AO-DIIS                CNVDIIS         .... on
   Start iteration      DIISMaxIt       ....    12
   Startup error        DIISStart       ....  0.200000
   # of expansion vecs  DIISMaxEq       ....     5
   Bias factor          DIISBfac        ....   1.050
   Max. coefficient     DIISMaxC        ....  10.000
 MO-DIIS                CNVKDIIS        .... off
 Trust-Rad. Augm. Hess. CNVTRAH         .... auto
   Auto Start mean grad. ratio tolernc. ....  1.125000
   Auto Start start iteration           ....     1
   Auto Start num. interpolation iter.  ....    10
   Max. Number of Micro iterations      ....    24
   Max. Number of Macro iterations      .... Maxiter - #DIIS iter
   Number of Davidson start vectors     ....     2
   Converg. threshold    (grad. norm)   ....   5.000e-05
   Grad. Scal. Fac. for Micro threshold ....   0.100
   Minimum threshold for Micro iter.    ....   1.000e-02
   NR start threshold (gradient norm)   ....   1.000e-04
   Initial trust radius                 ....   0.400
   Minimum AH scaling param. (alpha)    ....   1.000
   Maximum AH scaling param. (alpha)    .... 1000.000
   Quad. conv. algorithm                .... NR
   White noise on init. David. guess    .... on
   Maximum white noise                  ....   0.010
   Pseudo random numbers                .... off
   Inactive MOs                         .... canonical
   Orbital update algorithm             .... Taylor
   Preconditioner                       .... Diag
   Full preconditioner red. dimension   ....   250
 SOSCF                  CNVSOSCF        .... on
   Start iteration      SOSCFMaxIt      ....   150
   Startup grad/error   SOSCFStart      ....  0.003300
   Hessian update       SOSCFHessUp     .... L-BFGS
 Level Shifting         CNVShift        .... on
   Level shift para.    LevelShift      ....    0.2500
   Turn off err/grad.   ShiftErr        ....    0.0010
 Zerner damping         CNVZerner       .... off
 Static damping         CNVDamp         .... on
   Fraction old density DampFac         ....    0.7000
   Max. Damping (<1)    DampMax         ....    0.9800
   Min. Damping (>=0)   DampMin         ....    0.0000
   Turn off err/grad.   DampErr         ....    0.1000

SCF Procedure:
 Maximum # iterations   MaxIter         ....   125
 SCF integral mode      SCFMode         .... Direct
   Integral package                     .... SHARK and LIBINT hybrid scheme
 Reset frequency        DirectResetFreq ....    20
 Integral Threshold     Thresh          ....  1.000e-10 Eh
 Primitive CutOff       TCut            ....  1.000e-11 Eh

Convergence Tolerance:
 Convergence Check Mode ConvCheckMode   .... Total+1el-Energy
 Convergence forced     ConvForced      .... 1
 Energy Change          TolE            ....  1.000e-06 Eh
 1-El. energy change                    ....  1.000e-03 Eh
 Orbital Gradient       TolG            ....  5.000e-05
 Orbital Rotation angle TolX            ....  5.000e-05
 DIIS Error             TolErr          ....  1.000e-06

---------------------
INITIAL GUESS: MOREAD
---------------------
Guess MOs are being read from file: Dexketoprofen\Dexketoprofen_PBE_STO-3G\Dexketoprofen_PBE_STO-3G.orcainp.ges
Input Geometry matches current geometry (good)
Input basis set matches current basis set (good)
Occupation numbers will be reassigned to an Aufbau configuration
MOs were renormalized
MOs were reorthogonalized (Cholesky)
                      ------------------
                      INITIAL GUESS DONE (   0.0 sec)
                      ------------------
----------------------
INITIAL GUESS ORBITALS
----------------------
                      0         1         2         3         4         5   
                 -18.55204 -18.51147 -18.48549  -9.79028  -9.78690  -9.74413
                   2.00000   2.00000   2.00000   2.00000   2.00000   2.00000
                  --------  --------  --------  --------  --------  --------
  0H   1s        -0.000041  0.000002  0.000033  0.000107  0.000011  0.009690
  1C   1s         0.000037  0.000000 -0.000023  0.011894 -0.000015 -0.988155
  1C   2s        -0.000263 -0.000001  0.000154  0.006916 -0.000012 -0.046148
  1C   1pz       -0.000402 -0.000000 -0.000102  0.004020  0.000002  0.000119
  1C   1px       -0.000225 -0.000001 -0.000069  0.002241 -0.000001  0.000617
  1C   1py        0.000253 -0.000001  0.000478  0.002906  0.000004  0.000623
  2C   1s        -0.000002 -0.000000 -0.000013  0.000351  0.000000  0.019599
  2C   2s        -0.000036  0.000000  0.000075 -0.000335  0.000001  0.008475
  2C   1pz        0.000037  0.000000 -0.000015  0.000134  0.000001  0.004957
  2C   1px        0.000054  0.000000  0.000012  0.000192  0.000000 -0.000204
  2C   1py        0.000067 -0.000000  0.000138  0.000140 -0.000000 -0.003367
  3C   1s        -0.000631  0.000000  0.000720 -0.990829 -0.000004 -0.013439
  3C   2s         0.005065  0.000000 -0.008087 -0.038995 -0.000000  0.006441
  3C   1pz        0.003861 -0.000000 -0.000715 -0.000277 -0.000000 -0.004379
  3C   1px        0.002285 -0.000000  0.000135  0.000055  0.000000 -0.002331
  3C   1py       -0.002785  0.000000 -0.007563 -0.001018 -0.000000 -0.003008
  4O   1s        -0.993379  0.000002 -0.001014 -0.000709  0.000000  0.000031
  4O   2s        -0.029285 -0.000000  0.000336  0.005865 -0.000002 -0.000285
  4O   1pz        0.003687  0.000000  0.000088 -0.002591  0.000000  0.000233
  4O   1px        0.001811 -0.000000  0.000016 -0.001637  0.000000  0.000103
  4O   1py        0.001033  0.000000  0.000494  0.002836  0.000001  0.000183
  5O   1s        -0.000926 -0.000000  0.993443 -0.000655 -0.000000  0.000020
  5O   2s        -0.000307 -0.000000  0.029378  0.008042  0.000000 -0.000083
  5O   1pz       -0.000474  0.000000 -0.000485 -0.000217  0.000000  0.000347
  5O   1px       -0.000274  0.000000  0.000132  0.000111 -0.000000  0.000193
  5O   1py        0.000248  0.000000 -0.005806 -0.003586 -0.000000  0.000055
  6C   1s         0.000079  0.000001  0.000007  0.000389 -0.000139  0.054084
  6C   2s        -0.000441 -0.000019 -0.000000 -0.000157 -0.000052  0.010240
  6C   1pz       -0.000502 -0.000000 -0.000062 -0.000063 -0.000006  0.000611
  6C   1px       -0.000196  0.000004 -0.000061  0.000071 -0.000021 -0.002557
  6C   1py       -0.000027  0.000013 -0.000005 -0.000083  0.000059  0.005498
  7C   1s         0.000020  0.000001 -0.000001 -0.000102 -0.000004 -0.001007
  7C   2s        -0.000060  0.000060  0.000004 -0.000024  0.000279 -0.000810
  7C   1pz       -0.000129 -0.000015  0.000010 -0.000056  0.000085  0.000074
  7C   1px       -0.000035  0.000064  0.000004 -0.000027 -0.000148 -0.000087
  7C   1py       -0.000019  0.000000  0.000005 -0.000019 -0.000113 -0.000502
  8C   1s        -0.000000 -0.000026 -0.000000 -0.000002 -0.009537  0.000540
  8C   2s         0.000007  0.000283  0.000000  0.000000 -0.007903  0.000084
  8C   1pz        0.000011 -0.000329 -0.000000  0.000006 -0.000988 -0.000020
  8C   1px       -0.000004  0.000193 -0.000000  0.000002  0.002930  0.000036
  8C   1py        0.000008 -0.000417  0.000000  0.000000  0.005047  0.000066
  9C   1s         0.000000 -0.000007 -0.000000 -0.000003 -0.000210  0.000090
  9C   2s         0.000002 -0.000009  0.000000 -0.000001  0.000427 -0.000021
  9C   1pz       -0.000004  0.000002  0.000000 -0.000001 -0.000021  0.000002
  9C   1px       -0.000001  0.000152  0.000000  0.000001 -0.000026 -0.000006
  9C   1py       -0.000000 -0.000084  0.000000 -0.000002 -0.000041  0.000016
 10C   1s         0.000000  0.000001 -0.000000  0.000012 -0.000160  0.000428
 10C   2s         0.000003 -0.000006 -0.000000  0.000024 -0.000122  0.000106
 10C   1pz        0.000002 -0.000004 -0.000000 -0.000012 -0.000038  0.000027
 10C   1px        0.000003 -0.000012  0.000001 -0.000010  0.000092 -0.000079
 10C   1py        0.000007  0.000013  0.000000  0.000015  0.000036  0.000032
 11C   1s         0.000015 -0.000000  0.000000 -0.000044 -0.000047 -0.001081
 11C   2s        -0.000031 -0.000000  0.000004 -0.000094  0.000010 -0.000830
 11C   1pz       -0.000076  0.000003  0.000012  0.000061 -0.000007 -0.000095
 11C   1px       -0.000044 -0.000003 -0.000012 -0.000017  0.000014  0.000316
 11C   1py       -0.000020 -0.000000 -0.000007  0.000014  0.000019 -0.000218
 12C   1s        -0.000000  0.000728 -0.000000 -0.000003  0.990564 -0.000002
 12C   2s         0.000001 -0.007880  0.000000 -0.000000  0.041254  0.000004
 12C   1pz        0.000001  0.003852 -0.000000 -0.000000 -0.000294 -0.000001
 12C   1px        0.000000 -0.001224 -0.000000  0.000000  0.000100  0.000003
 12C   1py        0.000001  0.006203  0.000000 -0.000000 -0.000492  0.000002
 13O   1s         0.000002  0.993479  0.000000 -0.000000  0.000693  0.000000
 13O   2s         0.000000  0.029068 -0.000000  0.000000 -0.008098 -0.000000
 13O   1pz       -0.000000  0.002919  0.000000 -0.000000 -0.001982  0.000000
 13O   1px       -0.000000 -0.000927  0.000000  0.000000  0.000629 -0.000000
 13O   1py        0.000000  0.004700 -0.000000  0.000000 -0.003189 -0.000000
 14C   1s        -0.000000 -0.000027 -0.000000  0.000000 -0.009100 -0.000002
 14C   2s         0.000000  0.000283  0.000000 -0.000000 -0.007917 -0.000000
 14C   1pz        0.000000 -0.000241 -0.000000 -0.000000  0.004365 -0.000000
 14C   1px       -0.000002 -0.000017  0.000000 -0.000000 -0.003989 -0.000000
 14C   1py       -0.000000 -0.000520  0.000000 -0.000000  0.000391 -0.000001
 15C   1s        -0.000005  0.000001  0.000000  0.000012  0.000008  0.000016
 15C   2s         0.000047  0.000063 -0.000001  0.000009  0.000273  0.000004
 15C   1pz        0.000003 -0.000002  0.000000  0.000000 -0.000118 -0.000000
 15C   1px        0.000033 -0.000059 -0.000001  0.000006  0.000157  0.000003
 15C   1py        0.000024 -0.000034 -0.000000  0.000005  0.000069  0.000002
 16C   1s         0.000000  0.000001  0.000000 -0.000000 -0.000113 -0.000000
 16C   2s        -0.000000 -0.000021 -0.000000 -0.000000 -0.000051 -0.000000
 16C   1pz       -0.000001  0.000011  0.000000 -0.000000  0.000058 -0.000000
 16C   1px       -0.000002 -0.000008  0.000000 -0.000000  0.000005 -0.000000
 16C   1py       -0.000002  0.000004  0.000000 -0.000000  0.000029 -0.000000
 17C   1s        -0.000000 -0.000000  0.000000  0.000000 -0.000043  0.000000
 17C   2s        -0.000000 -0.000000  0.000000 -0.000000  0.000012 -0.000000
 17C   1pz       -0.000000 -0.000001  0.000000 -0.000000  0.000017 -0.000000
 17C   1px        0.000000  0.000003  0.000000  0.000000 -0.000015 -0.000000
 17C   1py       -0.000000  0.000003  0.000000 -0.000000 -0.000002 -0.000000
 18C   1s        -0.000000  0.000001  0.000000  0.000000 -0.000150  0.000000
 18C   2s        -0.000000 -0.000008  0.000000 -0.000000 -0.000122  0.000000
 18C   1pz        0.000000  0.000016 -0.000000  0.000000  0.000035 -0.000000
 18C   1px        0.000000  0.000008 -0.000000  0.000000 -0.000089  0.000000
 18C   1py        0.000000  0.000007 -0.000000  0.000000 -0.000046  0.000000
 19C   1s        -0.000000 -0.000007  0.000000  0.000000 -0.000209  0.000000
 19C   2s        -0.000000 -0.000005 -0.000000  0.000000  0.000427 -0.000000
 19C   1pz        0.000001 -0.000100 -0.000000  0.000000 -0.000018  0.000000
 19C   1px       -0.000000 -0.000124 -0.000000  0.000000  0.000039 -0.000000
 19C   1py        0.000000 -0.000092 -0.000000  0.000000 -0.000024 -0.000000
 20H   1s         0.000044 -0.000000 -0.000271  0.000324 -0.000000 -0.000335
 21H   1s         0.000022  0.000000  0.000007  0.000207  0.000000 -0.000346
 22H   1s        -0.000013 -0.000000 -0.000007  0.000131  0.000000 -0.000286
 23H   1s         0.006661  0.000001 -0.000139  0.001352  0.000005  0.000251
 24H   1s        -0.000013 -0.000016 -0.000001 -0.000005 -0.000226 -0.000015
 25H   1s        -0.000000 -0.000217  0.000000 -0.000000 -0.000428  0.000010
 26H   1s        -0.000000  0.000006 -0.000000 -0.000004 -0.000005  0.000002
 27H   1s        -0.000014  0.000001  0.000018  0.000165 -0.000012  0.000289
 28H   1s        -0.000103 -0.000017  0.000002 -0.000019 -0.000209 -0.000007
 29H   1s         0.000002  0.000000 -0.000000  0.000000 -0.000009  0.000000
 30H   1s         0.000000  0.000001 -0.000000  0.000000 -0.000011  0.000000
 31H   1s         0.000000  0.000007 -0.000000  0.000000 -0.000005  0.000000
 32H   1s         0.000000 -0.000240 -0.000000  0.000000 -0.000430  0.000000
                      6         7         8         9        10        11   
                  -9.73371  -9.72981  -9.72737  -9.72390  -9.72365  -9.72316
                   2.00000   2.00000   2.00000   2.00000   2.00000   2.00000
                  --------  --------  --------  --------  --------  --------
  0H   1s        -0.000425 -0.000032  0.000019 -0.000039 -0.000148 -0.000084
  1C   1s         0.055585  0.000162  0.000025  0.000559  0.001695  0.001022
  1C   2s        -0.004879 -0.000001 -0.000006 -0.000003 -0.000018  0.000007
  1C   1pz        0.000660 -0.000018  0.000000 -0.000027  0.000051 -0.000005
  1C   1px       -0.002426  0.000032  0.000002  0.000047 -0.000167 -0.000024
  1C   1py        0.005306  0.000034 -0.000003  0.000097  0.000124  0.000097
  2C   1s        -0.003246 -0.000011  0.000001 -0.000539 -0.000218 -0.000845
  2C   2s        -0.000356 -0.000007  0.000001 -0.000041 -0.000023 -0.000052
  2C   1pz       -0.000225 -0.000004  0.000001  0.000005 -0.000023  0.000001
  2C   1px       -0.000041 -0.000001  0.000000 -0.000033 -0.000029 -0.000046
  2C   1py        0.000333 -0.000003  0.000000  0.000035  0.000013  0.000056
  3C   1s         0.001195  0.000006 -0.000000 -0.000014 -0.000076 -0.000006
  3C   2s        -0.000208 -0.000003  0.000000  0.000013  0.000019  0.000015
  3C   1pz        0.000229  0.000001 -0.000000  0.000003  0.000023  0.000008
  3C   1px        0.000054  0.000000  0.000000 -0.000004 -0.000006 -0.000014
  3C   1py        0.000270  0.000000 -0.000000  0.000007 -0.000039  0.000007
  4O   1s        -0.000115  0.000004 -0.000000 -0.000014 -0.000038 -0.000021
  4O   2s         0.000867 -0.000024  0.000003  0.000095  0.000243  0.000142
  4O   1pz       -0.000129  0.000007 -0.000001 -0.000023 -0.000068 -0.000037
  4O   1px       -0.000059  0.000002 -0.000000 -0.000014 -0.000014 -0.000018
  4O   1py       -0.000589  0.000017 -0.000002 -0.000068 -0.000196 -0.000103
  5O   1s         0.000011  0.000000 -0.000000  0.000001 -0.000001  0.000001
  5O   2s        -0.000088  0.000000  0.000000 -0.000007  0.000010 -0.000007
  5O   1pz        0.000005  0.000000  0.000000  0.000001 -0.000002 -0.000001
  5O   1px        0.000024 -0.000000  0.000000  0.000003  0.000003  0.000005
  5O   1py        0.000052 -0.000000 -0.000000  0.000005 -0.000006  0.000005
  6C   1s         0.986329 -0.008484  0.000408  0.025443  0.050114  0.032386
  6C   2s         0.045591  0.000773 -0.000020 -0.003854 -0.007505 -0.005132
  6C   1pz        0.000125  0.000107 -0.000005  0.001620 -0.001447  0.001605
  6C   1px        0.000978 -0.000215  0.000024 -0.004168  0.003104 -0.004175
  6C   1py       -0.002140 -0.000611  0.000023  0.000004  0.005383  0.000427
  7C   1s        -0.047566 -0.078038 -0.001713 -0.108399  0.977944  0.008624
  7C   2s        -0.011876 -0.013125 -0.000052 -0.004997  0.043716  0.000482
  7C   1pz        0.001756  0.000783 -0.000026  0.000028 -0.000379  0.000039
  7C   1px       -0.003623 -0.002814 -0.000074 -0.000043  0.000850 -0.000049
  7C   1py       -0.005334  0.006033  0.000213  0.000001  0.000086 -0.000343
  8C   1s         0.004152  0.984277  0.006936  0.020999  0.079663 -0.044206
  8C   2s         0.001041  0.046259  0.000475 -0.001585 -0.005833  0.004110
  8C   1pz       -0.000020 -0.000912  0.000045  0.000954 -0.000659 -0.001526
  8C   1px       -0.000042  0.001147  0.000015 -0.002502  0.002601  0.003884
  8C   1py        0.000474  0.001730  0.000045  0.000689 -0.005919 -0.000509
  9C   1s        -0.002627 -0.070545 -0.002379  0.335238 -0.005722 -0.637284
  9C   2s        -0.000369 -0.012964 -0.000234  0.022337  0.000485 -0.031535
  9C   1pz       -0.000035 -0.002423 -0.000018 -0.001097 -0.000353  0.000423
  9C   1px        0.000121  0.006188  0.000106  0.002361  0.000828 -0.000900
  9C   1py       -0.000227 -0.000885  0.000030  0.004436  0.000649 -0.002378
 10C   1s         0.001180  0.003720  0.000180 -0.702273 -0.119453  0.290319
 10C   2s         0.000905  0.001286  0.000023 -0.041626 -0.005904  0.012813
 10C   1pz        0.000101  0.000186 -0.000001 -0.001411 -0.000166  0.000665
 10C   1px       -0.000300 -0.000442 -0.000009  0.003933  0.000470 -0.000784
 10C   1py        0.000326 -0.000398 -0.000006 -0.001934 -0.000284 -0.007620
 11C   1s        -0.046382 -0.003666 -0.000045  0.600150  0.035056  0.698054
 11C   2s        -0.011708 -0.000339 -0.000009  0.034373  0.002634  0.028728
 11C   1pz       -0.002324 -0.000044 -0.000000 -0.000352 -0.000152  0.000344
 11C   1px        0.006219  0.000075  0.000001  0.001572  0.000516 -0.001010
 11C   1py       -0.000489  0.000231 -0.000002 -0.005141 -0.000818  0.001000
 12C   1s         0.000196  0.011024  0.010738  0.000225  0.000909 -0.000561
 12C   2s        -0.000086 -0.007134 -0.007298 -0.000080 -0.000362  0.000137
 12C   1pz        0.000002  0.001305 -0.004329  0.000006  0.000104 -0.000044
 12C   1px       -0.000001 -0.003085  0.003991  0.000004 -0.000244  0.000057
 12C   1py       -0.000097 -0.004878 -0.000083 -0.000097 -0.000238  0.000117
 13O   1s         0.000001 -0.000022 -0.000023 -0.000005  0.000003  0.000008
 13O   2s        -0.000009  0.000228  0.000234  0.000029 -0.000011 -0.000055
 13O   1pz       -0.000008 -0.000047  0.000234 -0.000006 -0.000006 -0.000003
 13O   1px        0.000002  0.000176 -0.000234  0.000027 -0.000011 -0.000024
 13O   1py       -0.000002  0.000273  0.000022  0.000009  0.000001 -0.000016
 14C   1s        -0.000562 -0.007345  0.983093  0.000459  0.002370 -0.001153
 14C   2s        -0.000033 -0.000212  0.046340  0.000022  0.000019 -0.000029
 14C   1pz        0.000006 -0.000005  0.001743  0.000015 -0.000044 -0.000031
 14C   1px        0.000002 -0.000019 -0.001381 -0.000001 -0.000077  0.000020
 14C   1py       -0.000023  0.000060 -0.000386 -0.000005 -0.000075  0.000026
 15C   1s        -0.000376  0.000066 -0.089038 -0.001764  0.014021  0.000939
 15C   2s        -0.000054  0.000184 -0.013719 -0.000122  0.000971  0.000049
 15C   1pz       -0.000000  0.000149  0.005159 -0.000004  0.000124 -0.000014
 15C   1px       -0.000021 -0.000011  0.000782 -0.000008  0.000051 -0.000003
 15C   1py       -0.000028  0.000041  0.004122 -0.000015  0.000151 -0.000004
 16C   1s         0.000018 -0.000388  0.004545  0.000270 -0.002707 -0.000096
 16C   2s         0.000005 -0.000088  0.001505  0.000034 -0.000326 -0.000012
 16C   1pz       -0.000002  0.000032 -0.000601 -0.000010  0.000093  0.000004
 16C   1px        0.000003 -0.000038  0.000403  0.000010 -0.000097 -0.000002
 16C   1py        0.000002 -0.000002 -0.000095  0.000000  0.000004 -0.000001
 17C   1s        -0.000001  0.000076 -0.005036 -0.000065  0.000607  0.000058
 17C   2s        -0.000000  0.000010 -0.000533 -0.000007  0.000061  0.000005
 17C   1pz        0.000000 -0.000005  0.000211  0.000001 -0.000004 -0.000001
 17C   1px       -0.000000  0.000006 -0.000195 -0.000002  0.000019  0.000001
 17C   1py        0.000000  0.000001 -0.000010 -0.000001  0.000010  0.000000
 18C   1s        -0.000000 -0.000015  0.003904  0.000025 -0.000080 -0.000054
 18C   2s        -0.000000 -0.000013  0.001347  0.000003 -0.000003 -0.000007
 18C   1pz        0.000000  0.000007 -0.000362  0.000000 -0.000008  0.000001
 18C   1px       -0.000000 -0.000002  0.000516  0.000001  0.000003 -0.000002
 18C   1py       -0.000000 -0.000003  0.000150  0.000000 -0.000005 -0.000000
 19C   1s         0.000017 -0.000444 -0.073892 -0.000067 -0.000984  0.000309
 19C   2s         0.000004 -0.000006 -0.013097 -0.000008 -0.000090  0.000030
 19C   1pz       -0.000001  0.000031 -0.000560 -0.000001 -0.000005  0.000004
 19C   1px       -0.000000 -0.000035 -0.005032 -0.000003 -0.000034  0.000010
 19C   1py        0.000004  0.000025 -0.004382 -0.000001 -0.000018  0.000005
 20H   1s        -0.000143  0.000002 -0.000000 -0.000015 -0.000003 -0.000019
 21H   1s        -0.000124  0.000002  0.000000 -0.000008 -0.000010 -0.000006
 22H   1s        -0.000050  0.000004 -0.000000  0.000063 -0.000011  0.000039
 23H   1s        -0.002420  0.000059 -0.000008 -0.000234 -0.000606 -0.000346
 24H   1s         0.000609  0.000892 -0.000370  0.000993 -0.009308 -0.000110
 25H   1s        -0.000023  0.000822  0.000006 -0.003359 -0.000064  0.006043
 26H   1s        -0.000100 -0.000129 -0.000002  0.006853  0.001063 -0.002750
 27H   1s         0.000579 -0.000011  0.000001 -0.005875 -0.000456 -0.006543
 28H   1s         0.000082 -0.000416  0.000989  0.000081 -0.000762  0.000009
 29H   1s        -0.000002  0.000014 -0.000143 -0.000004  0.000044  0.000001
 30H   1s         0.000000  0.000000  0.000007  0.000001 -0.000007 -0.000001
 31H   1s         0.000000  0.000002 -0.000129 -0.000000  0.000000  0.000001
 32H   1s        -0.000000 -0.000017  0.000856  0.000000  0.000007 -0.000002
                     12        13        14        15        16        17   
                  -9.72247  -9.72207  -9.72181  -9.72099  -9.72006  -9.71975
                   2.00000   2.00000   2.00000   2.00000   2.00000   2.00000
                  --------  --------  --------  --------  --------  --------
  0H   1s        -0.000057  0.000029  0.000014 -0.000004 -0.000005  0.000005
  1C   1s         0.001078  0.000013  0.000008 -0.000005 -0.000004  0.000006
  1C   2s        -0.000077 -0.000008 -0.000004  0.000001  0.000001 -0.000002
  1C   1pz        0.000014 -0.000003 -0.000001  0.000000  0.000000 -0.000001
  1C   1px       -0.000074  0.000006  0.000003 -0.000000 -0.000001  0.000001
  1C   1py        0.000119 -0.000005 -0.000003  0.000000  0.000001 -0.000001
  2C   1s        -0.000616  0.000004  0.000002 -0.000001 -0.000001  0.000001
  2C   2s        -0.000036  0.000001  0.000000 -0.000000 -0.000000  0.000000
  2C   1pz       -0.000002  0.000001  0.000000 -0.000000 -0.000000  0.000000
  2C   1px       -0.000028  0.000001  0.000000 -0.000000 -0.000000  0.000000
  2C   1py        0.000034  0.000000  0.000000 -0.000000 -0.000000  0.000000
  3C   1s         0.000003  0.000013  0.000007 -0.000001 -0.000002  0.000002
  3C   2s         0.000008 -0.000004 -0.000002  0.000000  0.000001 -0.000001
  3C   1pz        0.000007 -0.000001 -0.000001  0.000000  0.000000 -0.000000
  3C   1px       -0.000010 -0.000001 -0.000001  0.000000  0.000000 -0.000000
  3C   1py        0.000001  0.000005  0.000003 -0.000000 -0.000001  0.000001
  4O   1s        -0.000014  0.000006  0.000003 -0.000001 -0.000001  0.000001
  4O   2s         0.000092 -0.000040 -0.000020  0.000003  0.000007 -0.000007
  4O   1pz       -0.000024  0.000012  0.000006 -0.000001 -0.000002  0.000002
  4O   1px       -0.000010  0.000001  0.000000 -0.000000 -0.000000  0.000000
  4O   1py       -0.000068  0.000031  0.000015 -0.000003 -0.000005  0.000005
  5O   1s         0.000000  0.000000  0.000000 -0.000000 -0.000000  0.000000
  5O   2s        -0.000003 -0.000001 -0.000001  0.000000  0.000000 -0.000000
  5O   1pz       -0.000001  0.000000  0.000000 -0.000000 -0.000000  0.000000
  5O   1px        0.000003  0.000000  0.000000 -0.000000 -0.000000  0.000000
  5O   1py        0.000002  0.000001  0.000000 -0.000000 -0.000000  0.000000
  6C   1s         0.021363 -0.000298 -0.000100 -0.000048 -0.000013  0.000038
  6C   2s        -0.002930  0.000065  0.000024  0.000007  0.000001 -0.000006
  6C   1pz        0.000750  0.000010  0.000004 -0.000000 -0.000000 -0.000000
  6C   1px       -0.001997 -0.000021 -0.000007 -0.000003 -0.000002  0.000003
  6C   1py        0.000672 -0.000049 -0.000019 -0.000005  0.000000  0.000004
  7C   1s         0.061898 -0.013501 -0.005669  0.000128  0.000808 -0.000470
  7C   2s         0.002371 -0.000330 -0.000118 -0.000017 -0.000007  0.000017
  7C   1pz        0.000072  0.000074  0.000035  0.000002 -0.000007  0.000003
  7C   1px       -0.000206 -0.000128 -0.000063  0.000012  0.000018 -0.000017
  7C   1py        0.000185  0.000103  0.000052 -0.000026 -0.000020  0.000028
  8C   1s         0.053651 -0.000670 -0.000258 -0.000993  0.000020  0.000593
  8C   2s        -0.004535  0.000129  0.000059  0.000005 -0.000028  0.000003
  8C   1pz        0.001579  0.000006 -0.000001  0.000047  0.000003 -0.000035
  8C   1px       -0.003961  0.000012  0.000009 -0.000033 -0.000004  0.000024
  8C   1py       -0.000025  0.000118  0.000050 -0.000026  0.000005  0.000021
  9C   1s         0.676065  0.000537  0.000196 -0.000468 -0.000038  0.000202
  9C   2s         0.024607  0.000006 -0.000001 -0.000003  0.000004 -0.000004
  9C   1pz        0.001004  0.000001  0.000001 -0.000002 -0.000000  0.000002
  9C   1px       -0.002202  0.000018  0.000009 -0.000014 -0.000004  0.000012
  9C   1py       -0.002549  0.000001 -0.000000  0.000002 -0.000000 -0.000001
 10C   1s         0.623558 -0.000249 -0.000087 -0.000140  0.000008  0.000041
 10C   2s         0.018639 -0.000013 -0.000004 -0.000001  0.000001 -0.000000
 10C   1pz       -0.001074 -0.000000  0.000000  0.000001  0.000000 -0.000001
 10C   1px        0.002578 -0.000003 -0.000001 -0.000001  0.000000  0.000000
 10C   1py        0.001560  0.000006  0.000002 -0.000002 -0.000000  0.000001
 11C   1s         0.360205 -0.000362 -0.000110 -0.000064  0.000002  0.000022
 11C   2s         0.010473 -0.000015 -0.000005 -0.000001  0.000000  0.000000
 11C   1pz        0.000505 -0.000002 -0.000001  0.000000  0.000000 -0.000000
 11C   1px       -0.001719 -0.000002 -0.000001  0.000000  0.000000 -0.000000
 11C   1py        0.003336 -0.000004 -0.000002 -0.000001  0.000001 -0.000000
 12C   1s         0.000917  0.000828  0.000235 -0.000927  0.000191  0.000670
 12C   2s        -0.000310 -0.000389 -0.000093  0.000298 -0.000046 -0.000258
 12C   1pz        0.000094 -0.000233 -0.000043  0.000228 -0.000001 -0.000162
 12C   1px       -0.000179  0.000309  0.000096 -0.000183  0.000048  0.000171
 12C   1py       -0.000201  0.000081  0.000046 -0.000012  0.000052  0.000030
 13O   1s        -0.000007  0.000002  0.000004  0.000011 -0.000005 -0.000002
 13O   2s         0.000063 -0.000002 -0.000019 -0.000078  0.000043  0.000026
 13O   1pz        0.000011  0.000007 -0.000002 -0.000014  0.000004  0.000006
 13O   1px        0.000014  0.000005  0.000019  0.000043 -0.000011 -0.000004
 13O   1py        0.000022  0.000001  0.000005  0.000003  0.000016  0.000006
 14C   1s         0.001286  0.082105  0.023404 -0.072960  0.010305  0.035238
 14C   2s         0.000018 -0.004701 -0.001520  0.005823 -0.001096 -0.002620
 14C   1pz        0.000033 -0.004589 -0.002187  0.000150  0.000940 -0.000636
 14C   1px       -0.000028 -0.000410 -0.001158 -0.004335  0.001730  0.001520
 14C   1py       -0.000033 -0.003390 -0.002373 -0.003352  0.002000  0.000779
 15C   1s         0.000665  0.849839  0.439542 -0.075387 -0.170621  0.149166
 15C   2s         0.000046  0.041550  0.018526 -0.002319 -0.000786  0.000935
 15C   1pz        0.000024  0.001959 -0.000440  0.000050  0.003584 -0.002646
 15C   1px        0.000000 -0.002401  0.000200 -0.000211 -0.003090  0.002619
 15C   1py        0.000014 -0.000653 -0.000184 -0.000131  0.000006  0.000259
 16C   1s        -0.000323 -0.309922  0.111527 -0.073945 -0.726849  0.581628
 16C   2s        -0.000030 -0.026369  0.008985 -0.004814 -0.031226  0.022356
 16C   1pz        0.000007  0.004844  0.001580 -0.000352  0.000039  0.000210
 16C   1px       -0.000007 -0.001840 -0.006207  0.001554  0.000561  0.000924
 16C   1py        0.000001  0.001797 -0.003748  0.000963  0.000467  0.000851
 17C   1s         0.000088  0.376433 -0.817845  0.244161 -0.050180  0.328434
 17C   2s         0.000007  0.021789 -0.041524  0.007683 -0.000620  0.003370
 17C   1pz        0.000000 -0.000979  0.002417  0.002017  0.003230  0.002869
 17C   1px        0.000002  0.002061 -0.001290  0.000801  0.004007 -0.002374
 17C   1py        0.000002  0.000902  0.000691  0.001980  0.005294  0.000116
 18C   1s         0.000075 -0.112219  0.288907  0.405520  0.560626  0.636993
 18C   2s         0.000008 -0.009069  0.022760  0.024769  0.022919  0.023179
 18C   1pz       -0.000003 -0.002022  0.003600 -0.005434  0.001833 -0.000082
 18C   1px        0.000003 -0.000579  0.001558  0.004337 -0.000812 -0.000946
 18C   1py       -0.000001 -0.001824  0.003655 -0.000344  0.000607 -0.000800
 19C   1s        -0.000623 -0.000750 -0.145076 -0.859908  0.327349  0.327861
 19C   2s        -0.000047  0.000757 -0.009925 -0.042830  0.009465  0.008525
 19C   1pz       -0.000005  0.000674 -0.001723 -0.002948 -0.002309 -0.002902
 19C   1px       -0.000013 -0.000882  0.001235  0.002123  0.002527  0.002719
 19C   1py       -0.000006 -0.000231 -0.000227 -0.000407  0.000401  0.000146
 20H   1s        -0.000011 -0.000000 -0.000000  0.000000  0.000000 -0.000000
 21H   1s        -0.000001  0.000000  0.000000 -0.000000 -0.000000  0.000000
 22H   1s         0.000013 -0.000000 -0.000000  0.000000  0.000000 -0.000000
 23H   1s        -0.000226  0.000107  0.000053 -0.000009 -0.000019  0.000018
 24H   1s        -0.000727 -0.000397 -0.000208  0.000068  0.000078 -0.000085
 25H   1s        -0.006365 -0.000005 -0.000002  0.000006 -0.000000 -0.000003
 26H   1s        -0.005774  0.000004  0.000001  0.000001 -0.000000 -0.000000
 27H   1s        -0.003402  0.000005  0.000002  0.000001 -0.000000 -0.000000
 28H   1s        -0.000059 -0.008164 -0.004089  0.000732  0.001435 -0.001419
 29H   1s         0.000004  0.003170 -0.001148  0.000761  0.006814 -0.005548
 30H   1s        -0.000001 -0.003745  0.007831 -0.002172  0.000432 -0.002969
 31H   1s        -0.000001  0.001100 -0.002958 -0.003947 -0.005213 -0.006024
 32H   1s         0.000004 -0.000103  0.001462  0.008246 -0.002948 -0.003093
                     18        19        20        21        22        23   
                  -9.71562  -0.91188  -0.88206  -0.84378  -0.73868  -0.72952
                   2.00000   2.00000   2.00000   2.00000   2.00000   2.00000
                  --------  --------  --------  --------  --------  --------
  0H   1s         0.000049 -0.006623  0.000085  0.001922 -0.028292 -0.008399
  1C   1s        -0.021375  0.021469 -0.000189 -0.004238  0.052897  0.015656
  1C   2s         0.006535 -0.052790  0.000504  0.013476 -0.142724 -0.042391
  1C   1pz       -0.005032 -0.020497 -0.000055  0.001705  0.006092  0.001959
  1C   1px        0.000224 -0.011124  0.000069 -0.000181 -0.013485 -0.003954
  1C   1py        0.003318 -0.008473 -0.000314  0.014467  0.032264  0.008559
  2C   1s        -0.989759  0.004855 -0.000036 -0.004751  0.022927  0.007256
  2C   2s        -0.047091 -0.011547  0.000087  0.011145 -0.059878 -0.019052
  2C   1pz        0.000381 -0.005703  0.000019  0.005031 -0.012345 -0.003780
  2C   1px        0.000004 -0.000875  0.000005  0.001009 -0.002008 -0.000614
  2C   1py       -0.000359  0.000854 -0.000043  0.001625  0.012670  0.003793
  3C   1s        -0.000691  0.126551  0.000259 -0.056261  0.003997  0.001386
  3C   2s         0.000023 -0.307627 -0.000637  0.131509 -0.010297 -0.003663
  3C   1pz       -0.000116 -0.066043 -0.000154 -0.038393  0.024943  0.007403
  3C   1px        0.000002 -0.033754 -0.000060 -0.035845  0.010819  0.003135
  3C   1py        0.000105 -0.029339 -0.000258  0.208118  0.012595  0.004201
  4O   1s        -0.000004  0.174685  0.000234  0.141556 -0.017145 -0.004603
  4O   2s         0.000025 -0.617216 -0.000843 -0.514098  0.065747  0.017715
  4O   1pz       -0.000024  0.125405  0.000153  0.085912 -0.004146 -0.000863
  4O   1px       -0.000045  0.063398  0.000086  0.038805 -0.003260 -0.000810
  4O   1py        0.000031  0.016901 -0.000044  0.061810  0.001029  0.000272
  5O   1s         0.000019  0.116683  0.000365 -0.179578 -0.005077 -0.001714
  5O   2s        -0.000134 -0.397707 -0.001253  0.626329  0.017962  0.006117
  5O   1pz        0.000039  0.004935  0.000018 -0.018721  0.003380  0.001037
  5O   1px        0.000040 -0.005825 -0.000015  0.000700  0.001777  0.000541
  5O   1py        0.000028  0.126401  0.000368 -0.163205 -0.003379 -0.001091
  6C   1s        -0.002286  0.008192 -0.001395  0.005247  0.115304  0.030905
  6C   2s        -0.000065 -0.018487  0.003465 -0.011903 -0.295543 -0.079451
  6C   1pz       -0.000003 -0.004661  0.000224 -0.003836 -0.001078  0.000778
  6C   1px       -0.000004 -0.000006 -0.000254 -0.001387 -0.017233 -0.006639
  6C   1py        0.000028 -0.006214 -0.001521 -0.000857  0.040482  0.007870
  7C   1s        -0.000064  0.002218 -0.005189  0.002295  0.104035  0.019922
  7C   2s         0.000024 -0.004814  0.012968 -0.005140 -0.264200 -0.050865
  7C   1pz        0.000045  0.000463 -0.000537  0.000188  0.019444  0.007603
  7C   1px        0.000018 -0.001001  0.002069 -0.001120 -0.054140 -0.015533
  7C   1py        0.000027 -0.002029 -0.006303 -0.001555 -0.001993 -0.008329
  8C   1s        -0.000039  0.000587 -0.024128  0.000848  0.096542  0.014656
  8C   2s         0.000004 -0.001436  0.058469 -0.002081 -0.245750 -0.036964
  8C   1pz       -0.000008 -0.000031  0.001667 -0.000019  0.011721  0.009423
  8C   1px       -0.000003  0.000075 -0.010578 -0.000044 -0.022579 -0.014236
  8C   1py        0.000004 -0.000619 -0.025525 -0.000884 -0.048197 -0.013095
  9C   1s        -0.000046  0.000352 -0.008811  0.000599  0.088206  0.022157
  9C   2s        -0.000000 -0.000818  0.020601 -0.001426 -0.222947 -0.055903
  9C   1pz       -0.000000 -0.000060  0.002675 -0.000101 -0.008549 -0.000390
  9C   1px        0.000000  0.000120 -0.009281  0.000179  0.024527  0.003161
  9C   1py        0.000002 -0.000303 -0.003314 -0.000494 -0.049851 -0.012978
 10C   1s        -0.000225  0.000624 -0.001832  0.000896  0.088711  0.024897
 10C   2s         0.000012 -0.001519  0.004685 -0.002153 -0.223692 -0.063177
 10C   1pz        0.000010 -0.000171  0.000751 -0.000289 -0.019966 -0.005200
 10C   1px       -0.000007  0.000462 -0.001684  0.000599  0.052276  0.013854
 10C   1py        0.000015 -0.000564 -0.001459 -0.000555 -0.008624 -0.003426
 11C   1s        -0.001036  0.002807 -0.000971  0.002475  0.098130  0.028038
 11C   2s         0.000020 -0.006381  0.002267 -0.005815 -0.248613 -0.071464
 11C   1pz       -0.000040 -0.001796  0.000203 -0.001584 -0.017964 -0.004742
 11C   1px        0.000017  0.002188 -0.000418  0.001568  0.039119  0.010342
 11C   1py        0.000061 -0.001252 -0.000828 -0.000363  0.039272  0.010597
 12C   1s        -0.000001  0.000200 -0.128598 -0.000087  0.015457 -0.012307
 12C   2s         0.000001 -0.000493  0.310293  0.000185 -0.045104  0.035721
 12C   1pz        0.000000  0.000086 -0.082930 -0.000145 -0.016333  0.041554
 12C   1px        0.000001 -0.000077  0.026453 -0.000043 -0.005772 -0.033957
 12C   1py        0.000000  0.000020 -0.133397 -0.000462 -0.054287  0.014328
 13O   1s         0.000000  0.000210 -0.209390 -0.000380 -0.027121  0.019557
 13O   2s        -0.000000 -0.000726  0.728079  0.001338  0.099865 -0.072307
 13O   1pz        0.000000 -0.000108  0.105159  0.000184  0.010222 -0.001774
 13O   1px       -0.000000  0.000031 -0.033359 -0.000069 -0.005564 -0.003994
 13O   1py       -0.000000 -0.000186  0.169373  0.000268  0.011475 -0.012648
 14C   1s         0.000003  0.000049 -0.023969  0.000016  0.029867 -0.105504
 14C   2s         0.000000 -0.000115  0.058045 -0.000036 -0.076264  0.269325
 14C   1pz        0.000000  0.000029 -0.021307 -0.000026 -0.007857  0.045455
 14C   1px       -0.000000 -0.000035  0.016811 -0.000006  0.002616 -0.039892
 14C   1py       -0.000000 -0.000014 -0.006088 -0.000050 -0.005976 -0.002971
 15C   1s         0.000003  0.000045 -0.005021  0.000064  0.027475 -0.102971
 15C   2s         0.000001 -0.000163  0.012576 -0.000191 -0.069489  0.261813
 15C   1pz        0.000001  0.000024 -0.005390  0.000027  0.006875 -0.005873
 15C   1px        0.000000 -0.000062  0.000039 -0.000062  0.007183 -0.046274
 15C   1py        0.000000 -0.000057 -0.003748 -0.000066  0.008713 -0.040750
 16C   1s         0.000001  0.000008 -0.001309  0.000015  0.021359 -0.100589
 16C   2s        -0.000000 -0.000016  0.003206 -0.000035 -0.053954  0.254542
 16C   1pz        0.000000  0.000008 -0.001313  0.000013  0.011727 -0.049413
 16C   1px       -0.000000 -0.000006  0.000638 -0.000011 -0.000944 -0.004572
 16C   1py        0.000000 -0.000001 -0.000399 -0.000003  0.006961 -0.036443
 17C   1s        -0.000000  0.000002 -0.000919  0.000004  0.019392 -0.099745
 17C   2s        -0.000000 -0.000006  0.002140 -0.000011 -0.048875  0.252849
 17C   1pz       -0.000000  0.000001 -0.000718  0.000001  0.008825 -0.044639
 17C   1px        0.000000 -0.000003  0.000563 -0.000004 -0.008843  0.041876
 17C   1py       -0.000000 -0.000001 -0.000062 -0.000003 -0.000834  0.001828
 18C   1s        -0.000000  0.000003 -0.001784  0.000002  0.019426 -0.100243
 18C   2s        -0.000000 -0.000007  0.004582 -0.000003 -0.048855  0.253700
 18C   1pz       -0.000000  0.000002 -0.001349 -0.000002 -0.000061  0.002482
 18C   1px        0.000000 -0.000003  0.001820 -0.000001 -0.009913  0.047909
 18C   1py        0.000000 -0.000001  0.000532 -0.000002 -0.007794  0.038975
 19C   1s         0.000001  0.000012 -0.008788 -0.000004  0.021425 -0.102331
 19C   2s        -0.000000 -0.000030  0.020502  0.000008 -0.054417  0.259684
 19C   1pz       -0.000000  0.000002 -0.002822 -0.000008 -0.009632  0.047265
 19C   1px       -0.000000 -0.000013  0.009084  0.000006 -0.003243  0.006892
 19C   1py       -0.000000 -0.000008  0.003761 -0.000005 -0.010001  0.039102
 20H   1s         0.009644 -0.004090  0.000000  0.006508 -0.009891 -0.003244
 21H   1s         0.009636 -0.001186  0.000021  0.001212 -0.012056 -0.003862
 22H   1s         0.009662 -0.001951  0.000017  0.002214 -0.013202 -0.004253
 23H   1s         0.000110 -0.105917 -0.000013 -0.108630 -0.001401 -0.000305
 24H   1s         0.000007 -0.000814  0.002461 -0.000911 -0.048252 -0.004446
 25H   1s         0.000001 -0.000089  0.007540 -0.000162 -0.036756 -0.010386
 26H   1s         0.000006 -0.000149  0.000470 -0.000266 -0.037556 -0.010964
 27H   1s        -0.000242 -0.001597  0.000261 -0.000944 -0.043807 -0.013067
 28H   1s        -0.000002  0.000100  0.002385 -0.000017 -0.016625  0.045293
 29H   1s         0.000000 -0.000009  0.000345 -0.000013 -0.009075  0.044008
 30H   1s         0.000000 -0.000001  0.000245 -0.000001 -0.008168  0.043660
 31H   1s         0.000000 -0.000001  0.000454 -0.000001 -0.008163  0.043799
 32H   1s         0.000000 -0.000008  0.007785  0.000012 -0.008213  0.044506
                     24        25        26        27        28        29   
                  -0.67672  -0.64907  -0.63198  -0.62796  -0.61657  -0.54509
                   2.00000   2.00000   2.00000   2.00000   2.00000   2.00000
                  --------  --------  --------  --------  --------  --------
  0H   1s        -0.089925  0.020947 -0.003984 -0.007106 -0.052053 -0.101674
  1C   1s         0.143460 -0.022169  0.001441  0.000225  0.071034  0.084911
  1C   2s        -0.396272  0.062014 -0.004106 -0.000836 -0.201717 -0.260197
  1C   1pz        0.021365  0.000813 -0.002687 -0.007729  0.038617 -0.113369
  1C   1px       -0.011381 -0.009739  0.004232  0.009424  0.024013  0.014285
  1C   1py        0.014673 -0.000962  0.003540  0.011600 -0.092303  0.069740
  2C   1s         0.098788 -0.015099 -0.001976 -0.009586  0.128105 -0.117805
  2C   2s        -0.267836  0.041636  0.005529  0.026861 -0.361216  0.349397
  2C   1pz       -0.041648  0.006649 -0.000308  0.000322 -0.023830 -0.064029
  2C   1px       -0.001006 -0.003172  0.001403  0.003245  0.006333  0.008779
  2C   1py        0.031473 -0.002703 -0.000328 -0.001092  0.003284  0.038360
  3C   1s         0.022878 -0.003941  0.000013 -0.000644  0.018823  0.042278
  3C   2s        -0.064902  0.011229  0.000105  0.002226 -0.056932 -0.131645
  3C   1pz        0.071084 -0.009425 -0.000315 -0.002866  0.042527  0.050448
  3C   1px        0.032609 -0.007244  0.001228  0.001867  0.021577  0.044396
  3C   1py        0.055929 -0.008768  0.000041 -0.001308  0.037470  0.069667
  4O   1s        -0.025359  0.002628 -0.000200 -0.000057 -0.001711 -0.025537
  4O   2s         0.099314 -0.010473  0.000878  0.000407  0.005694  0.107060
  4O   1pz        0.003134 -0.000315 -0.000362 -0.000851  0.005517  0.022943
  4O   1px        0.001327 -0.001820  0.000511  0.001061  0.005644  0.020871
  4O   1py       -0.000204  0.000236  0.000285  0.000496 -0.007689 -0.022111
  5O   1s        -0.023568  0.003698  0.000132  0.001059 -0.020729 -0.016735
  5O   2s         0.087323 -0.013918 -0.000532 -0.004124  0.080289  0.066358
  5O   1pz        0.013005 -0.002031 -0.000117 -0.000850  0.013050  0.005477
  5O   1px        0.006944 -0.001527  0.000189  0.000177  0.006420  0.009469
  5O   1py       -0.011153  0.001351  0.000097  0.000504 -0.006503  0.009966
  6C   1s         0.089244  0.000549  0.001593  0.007843 -0.100351  0.030419
  6C   2s        -0.239367 -0.000647 -0.004212 -0.021119  0.277590 -0.089286
  6C   1pz       -0.006896  0.029506 -0.012943 -0.030526  0.007438 -0.059520
  6C   1px        0.022348 -0.075192  0.030559  0.071716  0.028636  0.106165
  6C   1py       -0.072014 -0.012899  0.014015  0.038721 -0.085478 -0.056808
[...]
  0-1A  -> 17-1A    4.952651   39945.8   250.3   0.000025040   0.00021  -0.00323  -0.01204  -0.00714
  0-1A  -> 18-1A    5.061297   40822.1   245.0   0.041225856   0.33247   0.00973   0.53909   0.20434
  0-1A  -> 19-1A    5.139261   41450.9   241.2   0.016183717   0.12853  -0.04600   0.30958   0.17486
  0-1A  -> 20-1A    5.287134   42643.6   234.5   0.004545224   0.03509   0.00282  -0.17441  -0.06828
  0-1A  -> 21-1A    5.586125   45055.1   222.0   0.008956735   0.06545  -0.20695  -0.01168   0.14993
  0-1A  -> 22-1A    5.599031   45159.2   221.4   0.000377025   0.00275  -0.02545  -0.04491  -0.00916
  0-1A  -> 23-1A    5.720073   46135.5   216.8   0.000233056   0.00166  -0.01745  -0.01400   0.03410
  0-1A  -> 24-1A    5.804178   46813.9   213.6   0.001497637   0.01053   0.05714   0.02051  -0.08274
  0-1A  -> 25-1A    5.863001   47288.3   211.5   0.000144288   0.00100  -0.02951   0.01063   0.00455
  0-1A  -> 26-1A    5.932873   47851.9   209.0   0.000745075   0.00513  -0.06678  -0.01913  -0.01735
  0-1A  -> 27-1A    6.036993   48691.6   205.4   0.000645743   0.00437  -0.04467  -0.04864   0.00197
  0-1A  -> 28-1A    6.149418   49598.4   201.6   0.006209034   0.04121   0.13289   0.09413  -0.12121
  0-1A  -> 29-1A    6.227310   50226.6   199.1   0.326379589   2.13926  -0.97987  -0.65191   0.86841
  0-1A  -> 30-1A    6.316950   50949.6   196.3   0.001970149   0.01273   0.06399   0.08383  -0.04009

----------------------------------------------------------------------------------------------------
                     ABSORPTION SPECTRUM VIA TRANSITION VELOCITY DIPOLE MOMENTS    
----------------------------------------------------------------------------------------------------
     Transition      Energy     Energy  Wavelength fosc(P2)      P2        PX        PY        PZ   
                      (eV)      (cm-1)    (nm)                 (au**2)    (au)      (au)      (au)  
----------------------------------------------------------------------------------------------------
  0-1A  ->  1-1A    2.378420   19183.3   521.3   0.000906440   0.00012   0.00861  -0.00505  -0.00438
  0-1A  ->  2-1A    2.713142   21883.0   457.0   0.000825964   0.00012   0.00088  -0.00960  -0.00552
  0-1A  ->  3-1A    3.393068   27366.9   365.4   0.000104802   0.00002   0.00061   0.00083  -0.00431
  0-1A  ->  4-1A    3.681929   29696.8   336.7   0.000192409   0.00004   0.00163   0.00162   0.00581
  0-1A  ->  5-1A    3.742388   30184.4   331.3   0.000387044   0.00008   0.00835   0.00066  -0.00311
  0-1A  ->  6-1A    3.810626   30734.8   325.4   0.001518504   0.00032   0.00522  -0.00839   0.01488
  0-1A  ->  7-1A    3.869115   31206.5   320.4   0.000362559   0.00008  -0.00345  -0.00711   0.00385
  0-1A  ->  8-1A    3.932783   31720.0   315.3   0.000826751   0.00018   0.00030   0.01328   0.00166
  0-1A  ->  9-1A    3.968264   32006.2   312.4   0.000157078   0.00003  -0.00216  -0.00477   0.00263
  0-1A  -> 10-1A    4.553495   36726.4   272.3   0.000209919   0.00005   0.00247   0.00668  -0.00141
  0-1A  -> 11-1A    4.591713   37034.7   270.0   0.000412904   0.00010  -0.00094  -0.00433  -0.00921
  0-1A  -> 12-1A    4.667738   37647.9   265.6   0.001841672   0.00047   0.00567   0.01466  -0.01506
  0-1A  -> 13-1A    4.697372   37886.9   263.9   0.000034579   0.00001   0.00099   0.00046  -0.00279
  0-1A  -> 14-1A    4.757582   38372.5   260.6   0.030900477   0.00810  -0.05448  -0.05891   0.04081
  0-1A  -> 15-1A    4.782610   38574.4   259.2   0.001004567   0.00026   0.00619   0.01242  -0.00850
  0-1A  -> 16-1A    4.886393   39411.4   253.7   0.000140775   0.00004  -0.00598  -0.00069  -0.00132
  0-1A  -> 17-1A    4.952651   39945.8   250.3   0.000020180   0.00001  -0.00175   0.00146  -0.00057
  0-1A  -> 18-1A    5.061297   40822.1   245.0   0.007866123   0.00219  -0.01322   0.03226   0.03129
  0-1A  -> 19-1A    5.139261   41450.9   241.2   0.000787353   0.00022   0.00052  -0.01470   0.00258
  0-1A  -> 20-1A    5.287134   42643.6   234.5   0.001306040   0.00038   0.00374  -0.01495  -0.01197
  0-1A  -> 21-1A    5.586125   45055.1   222.0   0.000841134   0.00026   0.00584   0.01384  -0.00577
  0-1A  -> 22-1A    5.599031   45159.2   221.4   0.000087962   0.00003   0.00159   0.00257  -0.00424
  0-1A  -> 23-1A    5.720073   46135.5   216.8   0.000011278   0.00000   0.00085   0.00067  -0.00154
  0-1A  -> 24-1A    5.804178   46813.9   213.6   0.000236391   0.00008  -0.00376  -0.00728   0.00291
  0-1A  -> 25-1A    5.863001   47288.3   211.5   0.000035914   0.00001  -0.00005   0.00198   0.00277
  0-1A  -> 26-1A    5.932873   47851.9   209.0   0.000024733   0.00001  -0.00176  -0.00159  -0.00156
  0-1A  -> 27-1A    6.036993   48691.6   205.4   0.000014678   0.00000  -0.00144   0.00154  -0.00065
  0-1A  -> 28-1A    6.149418   49598.4   201.6   0.000796663   0.00027  -0.00831  -0.01107   0.00886
  0-1A  -> 29-1A    6.227310   50226.6   199.1   0.056838754   0.01951   0.07802   0.08587  -0.07779
  0-1A  -> 30-1A    6.316950   50949.6   196.3   0.000725956   0.00025  -0.01286  -0.00568   0.00742

------------------------------------------------------------------------------------------
                     CD SPECTRUM VIA TRANSITION ELECTRIC DIPOLE MOMENTS    
------------------------------------------------------------------------------------------
     Transition      Energy     Energy  Wavelength    R        MX        MY        MZ   
                      (eV)      (cm-1)    (nm)   (1e40*cgs)   (au)      (au)      (au)  
------------------------------------------------------------------------------------------
  0-1A  ->  1-1A    2.378420   19183.3   521.3   -4.18766  -0.00464  -0.03339  -0.04608
  0-1A  ->  2-1A    2.713142   21883.0   457.0  -16.17232   0.06457  -0.28617  -0.17190
  0-1A  ->  3-1A    3.393068   27366.9   365.4   -0.11728   0.00598  -0.00864   0.01802
  0-1A  ->  4-1A    3.681929   29696.8   336.7    0.11474  -0.04242   0.05206  -0.02844
  0-1A  ->  5-1A    3.742388   30184.4   331.3   -2.76818  -0.03135  -0.03183  -0.02870
  0-1A  ->  6-1A    3.810626   30734.8   325.4   -7.36823  -0.10863  -0.00230   0.04022
  0-1A  ->  7-1A    3.869115   31206.5   320.4    3.34425  -0.07419  -0.00542  -0.01186
  0-1A  ->  8-1A    3.932783   31720.0   315.3    7.69206   0.08599   0.01752   0.04788
  0-1A  ->  9-1A    3.968264   32006.2   312.4    6.65278  -0.08643  -0.01804  -0.01175
  0-1A  -> 10-1A    4.553495   36726.4   272.3    0.49223  -0.00402   0.02059  -0.00842
  0-1A  -> 11-1A    4.591713   37034.7   270.0    2.44561   0.00497   0.02119  -0.00562
  0-1A  -> 12-1A    4.667738   37647.9   265.6   10.59622   0.02938   0.05607  -0.02640
  0-1A  -> 13-1A    4.697372   37886.9   263.9    4.74943   0.02615  -0.08492   0.01076
  0-1A  -> 14-1A    4.757582   38372.5   260.6   15.61173  -0.16809   0.01064  -0.12755
  0-1A  -> 15-1A    4.782610   38574.4   259.2    3.12940   0.01014   0.05496   0.02413
  0-1A  -> 16-1A    4.886393   39411.4   253.7   -4.62094   0.01109  -0.47437  -0.01893
  0-1A  -> 17-1A    4.952651   39945.8   250.3   -0.21837  -0.00552  -0.03520  -0.00303
  0-1A  -> 18-1A    5.061297   40822.1   245.0  -29.88072  -0.08351   0.11423   0.01279
  0-1A  -> 19-1A    5.139261   41450.9   241.2    7.19687  -0.03986  -0.05355  -0.00297
  0-1A  -> 20-1A    5.287134   42643.6   234.5   24.69560  -0.01853   0.23397   0.16875
  0-1A  -> 21-1A    5.586125   45055.1   222.0   -0.71640  -0.00786  -0.02019  -0.00228
  0-1A  -> 22-1A    5.599031   45159.2   221.4   -0.24682  -0.04392   0.00836   0.02387
  0-1A  -> 23-1A    5.720073   46135.5   216.8   -0.25275  -0.01557  -0.00466   0.00584
  0-1A  -> 24-1A    5.804178   46813.9   213.6    0.31126  -0.02404   0.01852  -0.00404
  0-1A  -> 25-1A    5.863001   47288.3   211.5   -0.10410  -0.00695   0.00452  -0.00708
  0-1A  -> 26-1A    5.932873   47851.9   209.0   -0.90093  -0.02818   0.00618  -0.00850
  0-1A  -> 27-1A    6.036993   48691.6   205.4   -0.54781  -0.02971   0.00332  -0.00180
  0-1A  -> 28-1A    6.149418   49598.4   201.6    1.47283  -0.03500   0.00179  -0.01120
  0-1A  -> 29-1A    6.227310   50226.6   199.1   41.67750   0.29956  -0.03359   0.21100
  0-1A  -> 30-1A    6.316950   50949.6   196.3   -4.20700   0.04104   0.03879  -0.07597

------------------------------------------------------------------------------------------
                     CD SPECTRUM VIA TRANSITION VELOCITY DIPOLE MOMENTS    
------------------------------------------------------------------------------------------
     Transition      Energy     Energy  Wavelength    R        MX        MY        MZ   
                      (eV)      (cm-1)    (nm)   (1e40*cgs)   (au)      (au)      (au)  
------------------------------------------------------------------------------------------
  0-1A  ->  1-1A    2.378420   19183.3   521.3    1.78322  -0.00464  -0.03339  -0.04608
  0-1A  ->  2-1A    2.713142   21883.0   457.0   17.75472   0.06457  -0.28617  -0.17190
  0-1A  ->  3-1A    3.393068   27366.9   365.4   -0.30669   0.00598  -0.00864   0.01802
  0-1A  ->  4-1A    3.681929   29696.8   336.7   -0.52203  -0.04242   0.05206  -0.02844
  0-1A  ->  5-1A    3.742388   30184.4   331.3   -0.66311  -0.03135  -0.03183  -0.02870
  0-1A  ->  6-1A    3.810626   30734.8   325.4    0.17212  -0.10863  -0.00230   0.04022
  0-1A  ->  7-1A    3.869115   31206.5   320.4    0.82496  -0.07419  -0.00542  -0.01186
  0-1A  ->  8-1A    3.932783   31720.0   315.3    1.10188   0.08599   0.01752   0.04788
  0-1A  ->  9-1A    3.968264   32006.2   312.4    0.78304  -0.08643  -0.01804  -0.01175
  0-1A  -> 10-1A    4.553495   36726.4   272.3    0.39278  -0.00402   0.02059  -0.00842
  0-1A  -> 11-1A    4.591713   37034.7   270.0   -0.12441   0.00497   0.02119  -0.00562
  0-1A  -> 12-1A    4.667738   37647.9   265.6    3.80943   0.02938   0.05607  -0.02640
  0-1A  -> 13-1A    4.697372   37886.9   263.9   -0.11790   0.02615  -0.08492   0.01076
  0-1A  -> 14-1A    4.757582   38372.5   260.6    8.96862  -0.16809   0.01064  -0.12755
  0-1A  -> 15-1A    4.782610   38574.4   259.2    1.44963   0.01014   0.05496   0.02413
  0-1A  -> 16-1A    4.886393   39411.4   253.7    0.75292   0.01109  -0.47437  -0.01893
  0-1A  -> 17-1A    4.952651   39945.8   250.3   -0.10387  -0.00552  -0.03520  -0.00303
  0-1A  -> 18-1A    5.061297   40822.1   245.0   13.15311  -0.08351   0.11423   0.01279
  0-1A  -> 19-1A    5.139261   41450.9   241.2    1.89476  -0.03986  -0.05355  -0.00297
  0-1A  -> 20-1A    5.287134   42643.6   234.5  -13.55437  -0.01853   0.23397   0.16875
  0-1A  -> 21-1A    5.586125   45055.1   222.0   -0.71710  -0.00786  -0.02019  -0.00228
  0-1A  -> 22-1A    5.599031   45159.2   221.4   -0.34288  -0.04392   0.00836   0.02387
  0-1A  -> 23-1A    5.720073   46135.5   216.8   -0.05694  -0.01557  -0.00466   0.00584
  0-1A  -> 24-1A    5.804178   46813.9   213.6   -0.12417  -0.02404   0.01852  -0.00404
  0-1A  -> 25-1A    5.863001   47288.3   211.5   -0.02251  -0.00695   0.00452  -0.00708
  0-1A  -> 26-1A    5.932873   47851.9   209.0    0.11507  -0.02818   0.00618  -0.00850
  0-1A  -> 27-1A    6.036993   48691.6   205.4    0.10459  -0.02971   0.00332  -0.00180
  0-1A  -> 28-1A    6.149418   49598.4   201.6    0.35855  -0.03500   0.00179  -0.01120
  0-1A  -> 29-1A    6.227310   50226.6   199.1    8.38937   0.29956  -0.03359   0.21100
  0-1A  -> 30-1A    6.316950   50949.6   196.3   -2.66404   0.04104   0.03879  -0.07597

Total run time:       24.430 sec

           *** ORCA-CIS/TD-DFT FINISHED WITHOUT ERROR ***
-----------------------
CIS/TD-DFT TOTAL ENERGY
-----------------------

    E(SCF)  =   -832.172483493 Eh
    DE(CIS) =      0.087405321 Eh (Root  1)
    ----------------------------- ---------
    E(tot)  =   -832.085078172 Eh


Maximum memory used throughout the entire CIS-calculation: 94.0 MB
=> NOW LEAVING ORCA_CIS

-------------------------   --------------------
FINAL SINGLE POINT ENERGY      -832.085078172124
-------------------------   --------------------


------------------------------------------------------------------------------
                              ORCA PROPERTY CALCULATIONS
------------------------------------------------------------------------------

GBWName                                 ... Dexketoprofen\Dexketoprofen_PBE_STO-3G\Dexketoprofen_PBE_STO-3G.orcainp.gbw
Number of atoms                         ...     33
Number of basis functions               ...    109
Max core memory                         ...   1024 MB

Electric properties:
Dipole moment                           ... YES
Quadrupole moment                       ...  NO
Static polarizability (Dipole/Dipole)   ...  NO
Static polarizability (Dipole/Quad.)    ...  NO
Static polarizability (Quad./Quad.)     ...  NO
Static polarizability (Velocity)        ...  NO

Atomic electric properties:
Dipole moment                           ...  NO
Quadrupole moment                       ...  NO
Static polarizability                   ...  NO

Choice of electric origin               ... Center of mass
Position of electric origin             ...     3.548043    -5.512278     1.552211

General magnetic properties:
Magnetizability                         ...  NO

EPR properties:
g-Tensor (aka g-matrix)                 ...  NO
Zero-Field splitting spin-orbit         ...  NO
Zero-field splitting spin-spin          ...  NO
Hyperfine couplings                     ...  NO (   0 nuclei)
Quadrupole couplings                    ...  NO (   0 nuclei)
Contact density                         ...  NO (   0 nuclei)

NMR properties:
Chemical shifts                         ...  NO (   0 nuclei)
Spin-rotation constants                 ...  NO (   0 nuclei)
Spin-spin couplings                     ...  NO (   0 nuclei,    0 pairs)

Choice of magnetic origin               ... GIAO
Position of magnetic origin             ...     0.000000     0.000000     0.000000

Properties with geometric perturbations:
SCF Hessian                             ...  NO
IR spectrum                             ...  NO
VCD spectrum                            ...  NO
X-ray spectroscopy properties:
SCF XES/XAS/RIXS spectra                ...  NO


-------------
DIPOLE MOMENT
-------------

Method             : SCF
Type of density    : Electron Density
Multiplicity       :   1
Irrep              :   0
Energy             :  -832.1724834928274959 Eh
Relativity type    : 
Basis              : AO
                                X                 Y                 Z
Electronic contribution:      2.394884372      -4.564954575       2.507750540
Nuclear contribution   :     -2.719100266       4.026130252      -2.543065098
                        -----------------------------------------
Total Dipole Moment    :     -0.324215894      -0.538824324      -0.035314559
                        -----------------------------------------
Magnitude (a.u.)       :      0.629837055
Magnitude (Debye)      :      1.600918566



--------------------
Rotational spectrum 
--------------------
 
Rotational constants in cm-1:             0.019176             0.007179             0.005805 
Rotational constants in MHz :           574.890725           215.225216           174.039998 

Dipole components along the rotational axes: 
x,y,z [a.u.] :     0.598804    -0.105216     0.164495 
x,y,z [Debye]:     1.522038    -0.267437     0.418112 

 

Dipole moment calculation done in   0.0 sec 

Maximum memory used throughout the entire PROP-calculation: 8.0 MB

--------------------------------
SUGGESTED CITATIONS FOR THIS RUN
--------------------------------

Below you find a list of papers that are relevant to this ORCA run
We neither can nor want to force you to cite these papers, but we appreciate if you do
You receive ORCA, which is the product of decades of hard work by many enthusiastic individuals, for free
The only thing we kindly ask in return is that you cite our papers,
We deeply appreciate it, if you show your appreciation for ORCA by not just citing the generic ORCA reference.

Please note that relegating all ORCA citations to the supporting information does *not* help us.
SI sections are not indexed - citations you put there will not count into any citation statistics
But we need these citations in order to attract the funding resources that allow us to do what we are doing

Therefore, if you are a happy ORCA user, please consider citing a few of the papers listed below in the main body of your paper

In addition to the list printed below, the program has created the file Dexketoprofen\Dexketoprofen_PBE_STO-3G\Dexketoprofen_PBE_STO-3G.orcainp.bibtex that contains the list in bibtex format
You can import this file easily into all common literature databanks and citation aid programs


List of essential papers. We consider these as the minimum necessary citations

  1. Neese,F.
     Software update: the ORCA program system, version 5.0
     WIRES Comput. Molec. Sci., 2022 12(1)e1606
     doi.org/10.1002/wcms.1606

List of papers to cite with high priority. The work reported in these papers was absolutely
necessary for this run to complete.
Our perspective: the developers of density functionals and basis sets usually get cited in chemistry papers
Good! But without the algorithms to do something with them, the functionals or basis sets would not do anything.
Hence, in our opinion, the algorithm design and method developments papers are equally worthy of getting cited

  1. Neese,F.; Olbrich,G.
     Efficient use of the resolution of the identity approximation in time-dependent density functional calculations with hybrid density functionals
     Chem. Phys. Lett., 2002 362 170-178
     doi.org/10.1016/s0009-2614(02)01053-9
  2. Neese,F.
     An improvement of the resolution of the identity approximation for the formation of the Coulomb matrix
     J. Comp. Chem., 2003 24(14)1740-1747
     doi.org/10.1002/jcc.10318
  3. Garcia-Rates,M.; Neese,F.
     Effect of the Solute Cavity on the Solvation Energy and its Derivatives within the Framework of the Gaussian Charge Scheme
     J. Comput. Chem., 2020 41 922-939
     doi.org/10.1002/jcc.26139
  4. Neese,F.
     The SHARK Integral Generation and Digestion System
     J. Comp. Chem., 2022  1-16
     doi.org/10.1002/jcc.26942

List of suggested additional citations. These are papers that are important in the 'surrounding' of 
of this run, or papers that preceded the highly important papers. If you like your results we are grateful for a citation.

  1. Neese,F.
     The ORCA program system
     WIRES Comput. Molec. Sci., 2012 2(1)73-78
     doi.org/10.1002/wcms.81
  2. Neese,F.
     Software update: the ORCA program system, version 4.0
     WIRES Comput. Molec. Sci., 2018 8(1)1-6
     doi.org/10.1002/wcms.1327
  3. Neese,F.; Wennmohs,F.; Becker,U.; Riplinger,C.
     The ORCA quantum chemistry program package
     J. Chem. Phys., 2020 152 Art. No. L224108
     doi.org/10.1063/5.0004608

List of optional additional citations

  1. Neese,F.
     Approximate second-order SCF convergence for spin unrestricted wavefunctions
     Chem. Phys. Lett., 2000 325(1-3)93-98
     doi.org/10.1016/s0009-2614(00)00662-x

Timings for individual modules:

Sum of individual times          ...       28.050 sec (=   0.468 min)
Startup calculation              ...        0.921 sec (=   0.015 min)   3.3 %
SCF iterations                   ...        2.526 sec (=   0.042 min)   9.0 %
Property integrals               ...        0.067 sec (=   0.001 min)   0.2 %
Property calculations            ...        0.064 sec (=   0.001 min)   0.2 %
CIS module                       ...       24.472 sec (=   0.408 min)  87.2 %
                             ****ORCA TERMINATED NORMALLY****
TOTAL RUN TIME: 0 days 0 hours 0 minutes 28 seconds 175 msec
