
                                 *****************
                                 * O   R   C   A *
                                 *****************

                                            #,                                       
                                            ###                                      
                                            ####                                     
                                            #####                                    
                                            ######                                   
                                           ########,                                 
                                     ,,################,,,,,                         
                               ,,#################################,,                 
                          ,,##########################################,,             
                       ,#########################################, ''#####,          
                    ,#############################################,,   '####,        
                  ,##################################################,,,,####,       
                ,###########''''           ''''###############################       
              ,#####''   ,,,,##########,,,,          '''####'''          '####       
            ,##' ,,,,###########################,,,                        '##       
           ' ,,###''''                  '''############,,,                           
         ,,##''                                '''############,,,,        ,,,,,,###''
      ,#''                                            '''#######################'''  
     '                                                          ''''####''''         
             ,#######,   #######,   ,#######,      ##                                
            ,#'     '#,  ##    ##  ,#'     '#,    #''#        ,####,   ,####,        
            ##       ##  ##   ,#'  ##            #'  '#       #'       #'  '#        
            ##       ##  #######   ##           ,######,      #####,   #    #        
            '#,     ,#'  ##    ##  '#,     ,#' ,#      #,     #,   #   #,  ,#        
             '#######'   ##     ##  '#######'  #'      '#     '####' # '####'        



                #########################################################
                #                        -***-                          #
                #          Department of theory and spectroscopy        #
                #                                                       #
                #                      Frank Neese                      #
                #                                                       #
                #     Directorship, Architecture, Infrastructure        #
                #                    SHARK, DRIVERS                     #
                #        Core code/Algorithms in most modules           #
                #                                                       #
                #        Max Planck Institute fuer Kohlenforschung      #
                #                Kaiser Wilhelm Platz 1                 #
                #                 D-45470 Muelheim/Ruhr                 #
                #                      Germany                          #
                #                                                       #
                #                  All rights reserved                  #
                #                        -***-                          #
                #########################################################


                         Program Version 6.0.0  -   RELEASE   -


 With contributions from (in alphabetic order):
   Daniel Aravena         : Magnetic Suceptibility
   Michael Atanasov       : Ab Initio Ligand Field Theory (pilot matlab implementation)
   Alexander A. Auer      : GIAO ZORA, VPT2 properties, NMR spectrum
   Ute Becker             : All parallelization in ORCA, NUMFREQ, NUMCALC
   Giovanni Bistoni       : ED, misc. LED, open-shell LED, HFLD
   Martin Brehm           : Molecular dynamics
   Dmytro Bykov           : pre 5.0 version of the SCF Hessian
   Marcos Casanova-Páez   : Triplet and SCS-CIS(D). UHF-(DLPNO)-IP/EA/STEOM-CCSD. UHF-CVS-IP/STEOM-CCSD
   Vijay G. Chilkuri      : MRCI spin determinant printing, contributions to CSF-ICE
   Pauline Colinet        : FMM embedding
   Dipayan Datta          : RHF DLPNO-CCSD density
   Achintya Kumar Dutta   : EOM-CC, STEOM-CC
   Nicolas Foglia         : Exact transition moments, OPA infrastructure, MCD improvements
   Dmitry Ganyushin       : Spin-Orbit,Spin-Spin,Magnetic field MRCI
   Miquel Garcia          : C-PCM and meta-GGA Hessian, CCSD/C-PCM, Gaussian charge scheme
   Tiago L. C. Gouveia    : GS-ROHF, GS-ROCIS
   Yang Guo               : DLPNO-NEVPT2, F12-NEVPT2, CIM, IAO-localization
   Andreas Hansen         : Spin unrestricted coupled pair/coupled cluster methods
   Ingolf Harden          : AUTO-CI MPn and infrastructure 
   Benjamin Helmich-Paris : MC-RPA, TRAH-(SCF,CASSCF), AVAS, COSX integrals, SCF dyn. polar.
   Lee Huntington         : MR-EOM, pCC
   Robert Izsak           : Overlap fitted RIJCOSX, COSX-SCS-MP3, EOM
   Riya Kayal             : Wick's Theorem for AUTO-CI, AUTO-CI UHF-CCSDT
   Emily Kempfer          : AUTO-CI, RHF CISDT and CCSDT
   Christian Kollmar      : KDIIS, OOCD, Brueckner-CCSD(T), CCSD density, CASPT2, CASPT2-K, improved NEVPT2
   Axel Koslowski         : Symmetry handling
   Simone Kossmann        : Meta GGA functionals, TD-DFT gradient, OOMP2, (MP2 Hessian; deprecated post 5.0)
   Lucas Lang             : DCDCAS
   Marvin Lechner         : AUTO-CI (C++ implementation), FIC-MRCC
   Spencer Leger          : CASSCF response
   Dagmar Lenk            : GEPOL surface, SMD, ORCA-2-JSON
   Dimitrios Liakos       : Extrapolation schemes; Compound Job, initial MDCI parallelization
   Dimitrios Manganas     : Further ROCIS development; embedding schemes. LFT, Crystal Embedding
   Dimitrios Pantazis     : SARC Basis sets
   Anastasios Papadopoulos: AUTO-CI, single reference methods and gradients
   Taras Petrenko         : pre 6.0 DFT Hessian and TD-DFT gradient, (ASA, deprecated), ECA, 1-Electron XAS/XES, NRVS
   Peter Pinski           : DLPNO-MP2, DLPNO-MP2 Gradient
   Christoph Reimann      : Effective Core Potentials
   Marius Retegan         : Local ZFS, SOC
   Christoph Riplinger    : Optimizer, TS searches, QM/MM, DLPNO-CCSD(T), (RO)-DLPNO pert. Triples
   Michael Roemelt        : Original ROCIS implementation
   Masaaki Saitow         : Open-shell DLPNO-CCSD energy and density
   Barbara Sandhoefer     : DKH picture change effects
   Kantharuban Sivalingam : CASSCF convergence/infrastructure, NEVPT2 and variants, FIC-MRCI
   Bernardo de Souza      : ESD, SOC TD-DFT
   Georgi Stoychev        : AutoAux, RI-MP2 NMR, DLPNO-MP2 response, X2C
   Van Anh Tran           : RI-MP2 g-tensors
   Willem Van den Heuvel  : Paramagnetic NMR
   Zikuan Wang            : NOTCH, Electric field optimization 
   Frank Wennmohs         : Technical directorship and infrastructure
   Hang Xu                : AUTO-CI-Response properties 


 We gratefully acknowledge several colleagues who have allowed us to
 interface, adapt or use parts of their codes:
   Stefan Grimme, W. Hujo, H. Kruse, P. Pracht,  : VdW corrections, initial TS optimization,
                  C. Bannwarth, S. Ehlert,         DFT functionals, gCP, sTDA/sTD-DF
                  L. Wittmann, M. Mueller
   Ed Valeev, F. Pavosevic, A. Kumar             : LibInt (2-el integral package), F12 methods
   Garnet Chan, S. Sharma, J. Yang, R. Olivares  : DMRG
   Ulf Ekstrom                                   : XCFun DFT Library
   Mihaly Kallay                                 : mrcc  (arbitrary order and MRCC methods)
   Frank Weinhold                                : gennbo (NPA and NBO analysis)
   Simon Mueller                                 : openCOSMO-RS
   Christopher J. Cramer and Donald G. Truhlar   : smd solvation model
   Lars Goerigk                                  : TD-DFT with DH, B97 family of functionals
   V. Asgeirsson, H. Jonsson                     : NEB implementation
   FAccTs GmbH                                   : IRC, NEB, NEB-TS, DLPNO-Multilevel, CI-OPT
                                                   MM, QMMM, 2- and 3-layer-ONIOM, Crystal-QMMM,
                                                   LR-CPCM, SF, NACMEs, symmetry and pop. for TD-DFT,
                                                   nearIR, NL-DFT gradient (VV10), updates on ESD,
                                                   ML-optimized integration grids, MBIS, APM,
                                                   GOAT, DOCKER, SOLVATOR, interface openCOSMO-RS
   S Lehtola, MJT Oliveira, MAL Marques          : LibXC Library
   Liviu Ungur et al                             : ANISO software


 Your calculation uses the libint2 library for the computation of 2-el integrals
 For citations please refer to: http://libint.valeyev.net

 Your ORCA version has been built with support for libXC version: 6.2.2
 For citations please refer to: https://libxc.gitlab.io

 This ORCA versions uses:
   CBLAS   interface :  Fast vector & matrix operations
   LAPACKE interface :  Fast linear algebra routines
   Shared memory     :  Shared parallel matrices


Warning: RI is on but no J-basis has been assigned. Assigning Def2/J (nothing to worry about!)
================================================================================

----- Orbital basis set information -----
Your calculation utilizes the basis: def2-TZVP
   F. Weigend and R. Ahlrichs, Phys. Chem. Chem. Phys. 7, 3297 (2005).

----- AuxJ basis set information -----
Your calculation utilizes the auxiliary basis: def2/J
   F. Weigend, Phys. Chem. Chem. Phys. 8, 1057 (2006).

================================================================================
                                        WARNINGS
                       Please study these warnings very carefully!
================================================================================


WARNING: Geometry Optimization
  ===> : Switching off AutoStart
         For restart on a previous wavefunction, please use MOREAD

================================================================================
                                       INPUT FILE
================================================================================
NAME = Dexketoprofen\Dexketoprofen_PBE_def2-TZVP\Dexketoprofen_PBE_def2-TZVP.orcainp
|  1> # ORCA input file
|  2> # 
|  3> !PBE def2-TZVP Opt CPCM(WATER)
|  4> * xyz 0 1
|  5>    H        2.19682        -0.91154         0.64044
|  6>    C        2.08274        -0.07230        -0.06151
|  7>    C        0.61781         0.37039        -0.01313
|  8>    C        2.95733         1.04661         0.51400
|  9>    O        4.28094         0.77780         0.52831
| 10>    O        2.52215         2.08691         0.98966
| 11>    C        2.46394        -0.56230        -1.45986
| 12>    C        2.32706        -1.92842        -1.78584
| 13>    C        2.67594        -2.40638        -3.06924
| 14>    C        3.08558        -1.51093        -4.05073
| 15>    C        3.20379        -0.15525        -3.74761
| 16>    C        2.90509         0.31130        -2.46255
| 17>    C        2.63455        -3.85377        -3.42227
| 18>    O        2.31712        -4.18658        -4.56116
| 19>    C        3.03282        -4.89946        -2.43983
| 20>    C        3.93140        -4.62386        -1.40002
| 21>    C        4.30356        -5.63104        -0.51010
| 22>    C        3.79973        -6.92143        -0.66808
| 23>    C        2.92349        -7.20672        -1.71455
| 24>    C        2.54088        -6.19946        -2.60247
| 25>    H        0.34865         0.71015         0.99629
| 26>    H       -0.06373        -0.44391        -0.27769
| 27>    H        0.43042         1.20885        -0.69604
| 28>    H        4.52517        -0.07595         0.12336
| 29>    H        1.94296        -2.62253        -1.04434
| 30>    H        3.32225        -1.86705        -5.05606
| 31>    H        3.53216         0.53830        -4.52112
| 32>    H        3.01182         1.37929        -2.26715
| 33>    H        4.36991        -3.63997        -1.27773
| 34>    H        4.99900        -5.41307         0.29648
| 35>    H        4.10396        -7.70787         0.01569
| 36>    H        2.54331        -8.21744        -1.84315
| 37>    H        1.86720        -6.43272        -3.42364
| 38> *
| 39> 
| 40>                          ****END OF INPUT****
================================================================================

                       *****************************
                       * Geometry Optimization Run *
                       *****************************

Geometry optimization settings:
Update method            Update   .... BFGS
Choice of coordinates    CoordSys .... (2022) Redundant Internals
Initial Hessian          InHess   .... Almloef's Model
Max. no of cycles        MaxIter  .... 99

Convergence Tolerances:
Energy Change            TolE     ....  5.0000e-06 Eh
Max. Gradient            TolMAXG  ....  3.0000e-04 Eh/bohr
RMS Gradient             TolRMSG  ....  1.0000e-04 Eh/bohr
Max. Displacement        TolMAXD  ....  4.0000e-03 bohr
RMS Displacement         TolRMSD  ....  2.0000e-03 bohr
Strict Convergence                .... False

------------------------------------------------------------------------------
                        ORCA OPTIMIZATION COORDINATE SETUP
------------------------------------------------------------------------------

The optimization will be done in redundant internal coordinates (2022)
Making redundant internal coordinates   ...  (2022 redundants) done
Evaluating the initial hessian          ...  (Almloef) done
Evaluating the coordinates              ...  done
Calculating the B-matrix                .... done
Calculating the G-matrix                .... done
Diagonalizing the G-matrix              .... done
Small eigenvalue found = 3.135e-03
Small eigenvalue found = 1.261e-02
Small eigenvalue found = 1.612e-02
Small eigenvalue found = 2.815e-02
The first mode is                       ....   70
The number of degrees of freedom        ....   93

    -----------------------------------------------------------------
                    Redundant Internal Coordinates


    -----------------------------------------------------------------
         Definition                    Initial Value    Approx d2E/dq
    -----------------------------------------------------------------
      1. B(C   1,H   0)                  1.1000         0.347070   
      2. B(C   2,C   1)                  1.5311         0.372038   
      3. B(C   3,C   1)                  1.5323         0.370371   
      4. B(O   4,C   3)                  1.3507         0.646497   
      5. B(O   5,C   3)                  1.2239         1.030208   
      6. B(C   6,C   1)                  1.5300         0.373621   
      7. B(C   7,C   6)                  1.4111         0.578136   
      8. B(C   8,C   7)                  1.4133         0.573645   
      9. B(C   9,C   8)                  1.3903         0.624088   
     10. B(C  10,C   9)                  1.3942         0.615287   
     11. B(C  11,C  10)                  1.3994         0.603629   
     12. B(C  11,C   6)                  1.4011         0.599756   
     13. B(C  12,C   8)                  1.4904         0.432079   
     14. B(O  13,C  12)                  1.2282         1.013770   
     15. B(C  14,C  12)                  1.4891         0.434218   
     16. B(C  15,C  14)                  1.4016         0.598634   
     17. B(C  16,C  15)                  1.3946         0.614357   
     18. B(C  17,C  16)                  1.3942         0.615137   
     19. B(C  18,C  17)                  1.3944         0.614831   
     20. B(C  19,C  18)                  1.3962         0.610734   
     21. B(C  19,C  14)                  1.3994         0.603481   
     22. B(H  20,C   2)                  1.0986         0.348965   
     23. B(H  21,C   2)                  1.0943         0.354408   
     24. B(H  22,C   2)                  1.0975         0.350320   
     25. B(H  23,O   4)                  0.9760         0.490325   
     26. B(H  24,C   7)                  1.0859         0.365587   
     27. B(H  25,C   9)                  1.0925         0.356828   
     28. B(H  26,C  10)                  1.0896         0.360673   
     29. B(H  27,C  11)                  1.0910         0.358844   
     30. B(H  28,C  15)                  1.0841         0.367982   
     31. B(H  29,C  16)                  1.0871         0.363998   
     32. B(H  30,C  17)                  1.0856         0.365932   
     33. B(H  31,C  18)                  1.0875         0.363439   
     34. B(H  32,C  19)                  1.0875         0.363472   
     35. A(C   2,C   1,C   3)          108.8500         0.362562   
     36. A(C   3,C   1,C   6)          115.7801         0.362825   
     37. A(H   0,C   1,C   2)          107.4361         0.322146   
     38. A(H   0,C   1,C   3)          104.9651         0.321910   
     39. A(H   0,C   1,C   6)          108.2428         0.322371   
     40. A(C   2,C   1,C   6)          111.0918         0.363103   
     41. A(C   1,C   2,H  21)          111.9060         0.323253   
     42. A(H  20,C   2,H  22)          107.0761         0.288164   
     43. A(C   1,C   2,H  20)          110.6634         0.322434   
     44. A(H  20,C   2,H  21)          107.4386         0.288688   
     45. A(H  21,C   2,H  22)          108.1623         0.288863   
     46. A(C   1,C   2,H  22)          111.3822         0.322639   
     47. A(O   4,C   3,O   5)          120.8966         0.473374   
     48. A(C   1,C   3,O   5)          124.3116         0.430653   
     49. A(C   1,C   3,O   4)          114.7060         0.396456   
     50. A(C   3,O   4,H  23)          114.5142         0.369047   
     51. A(C   7,C   6,C  11)          117.9587         0.426106   
     52. A(C   1,C   6,C  11)          122.1966         0.394389   
     53. A(C   1,C   6,C   7)          119.8030         0.391862   
     54. A(C   8,C   7,H  24)          119.4229         0.349197   
     55. A(C   6,C   7,C   8)          120.8804         0.422727   
     56. A(C   6,C   7,H  24)          119.6956         0.349656   
     57. A(C   7,C   8,C   9)          119.7358         0.428555   
     58. A(C   9,C   8,C  12)          117.8038         0.407458   
     59. A(C   7,C   8,C  12)          122.4586         0.401440   
     60. A(C   8,C   9,C  10)          119.8530         0.433983   
     61. A(C  10,C   9,H  25)          119.9126         0.351910   
     62. A(C   8,C   9,H  25)          120.2328         0.352756   
     63. A(C   9,C  10,H  26)          119.3514         0.352548   
     64. A(C  11,C  10,H  26)          120.2674         0.351410   
     65. A(C   9,C  10,C  11)          120.3812         0.431391   
     66. A(C  10,C  11,H  27)          118.0327         0.351108   
     67. A(C   6,C  11,H  27)          120.8638         0.350726   
     68. A(C   6,C  11,C  10)          121.0977         0.429415   
     69. A(O  13,C  12,C  14)          119.3810         0.441888   
     70. A(C   8,C  12,C  14)          121.2169         0.382356   
     71. A(C   8,C  12,O  13)          119.3378         0.441494   
     72. A(C  15,C  14,C  19)          119.6188         0.429252   
     73. A(C  12,C  14,C  19)          118.7933         0.405400   
     74. A(C  12,C  14,C  15)          121.5231         0.404823   
     75. A(C  14,C  15,C  16)          120.1635         0.430630   
     76. A(C  16,C  15,H  28)          118.3933         0.353657   
     77. A(C  14,C  15,H  28)          121.4294         0.352109   
     78. A(C  15,C  16,C  17)          119.9784         0.432739   
     79. A(C  17,C  16,H  29)          120.0548         0.353082   
     80. A(C  15,C  16,H  29)          119.9592         0.353006   
     81. A(C  16,C  17,C  18)          120.0982         0.432799   
     82. A(C  18,C  17,H  30)          120.0382         0.353369   
     83. A(C  16,C  17,H  30)          119.8558         0.353399   
     84. A(C  17,C  18,C  19)          120.1247         0.432241   
     85. A(C  19,C  18,H  31)          119.9668         0.352561   
     86. A(C  17,C  18,H  31)          119.9071         0.352960   
     87. A(C  14,C  19,C  18)          119.9950         0.430796   
     88. A(C  18,C  19,H  32)          119.6859         0.352566   
     89. A(C  14,C  19,H  32)          120.3170         0.351855   
     90. D(H  21,C   2,C   1,C   6)     59.5759         0.011057   
     91. D(H  21,C   2,C   1,H   0)    -58.6416         0.011057   
     92. D(H  20,C   2,C   1,H   0)     61.1514         0.011057   
     93. D(H  21,C   2,C   1,C   3)   -171.7974         0.011057   
     94. D(H  20,C   2,C   1,C   6)    179.3689         0.011057   
     95. D(H  20,C   2,C   1,C   3)    -52.0044         0.011057   
     96. D(O   4,C   3,C   1,C   2)    179.9699         0.010271   
     97. D(O   4,C   3,C   1,C   6)    -54.0729         0.010271   
     98. D(O   4,C   3,C   1,H   0)     65.1988         0.010271   
     99. D(O   5,C   3,C   1,C   2)      3.3220         0.010271   
    100. D(O   5,C   3,C   1,H   0)   -111.4491         0.010271   
    101. D(H  23,O   4,C   3,C   1)      3.3294         0.030862   
    102. D(H  23,O   4,C   3,O   5)   -179.8972         0.030862   
    103. D(C   7,C   6,C   1,H   0)     26.6289         0.010439   
    104. D(C   7,C   6,C   1,C   2)    -91.0998         0.010439   
    105. D(C   7,C   6,C   1,C   3)    144.0901         0.010439   
    106. D(C  11,C   6,C   1,C   2)     86.5028         0.010439   
    107. D(C  11,C   6,C   1,H   0)   -155.7685         0.010439   
    108. D(H  24,C   7,C   6,C  11)   -177.1388         0.022957   
    109. D(C   8,C   7,C   6,C  11)      2.4781         0.022957   
    110. D(H  24,C   7,C   6,C   1)      0.5645         0.022957   
    111. D(C   8,C   7,C   6,C   1)   -179.8186         0.022957   
    112. D(C  12,C   8,C   7,H  24)     -4.6825         0.022586   
    113. D(C  12,C   8,C   7,C   6)    175.6996         0.022586   
    114. D(C   9,C   8,C   7,H  24)    175.8230         0.022586   
    115. D(C   9,C   8,C   7,C   6)     -3.7949         0.022586   
    116. D(H  25,C   9,C   8,C  12)      2.7105         0.026973   
    117. D(H  25,C   9,C   8,C   7)   -177.7717         0.026973   
    118. D(C  10,C   9,C   8,C  12)   -176.8273         0.026973   
    119. D(C  10,C   9,C   8,C   7)      2.6905         0.026973   
    120. D(C  11,C  10,C   9,C   8)     -0.3660         0.026173   
    121. D(H  26,C  10,C   9,H  25)      0.0378         0.026173   
    122. D(H  26,C  10,C   9,C   8)    179.5771         0.026173   
    123. D(C  11,C  10,C   9,H  25)   -179.9052         0.026173   
    124. D(H  27,C  11,C  10,H  26)     -0.0066         0.025135   
    125. D(H  27,C  11,C  10,C   9)    179.9359         0.025135   
    126. D(C   6,C  11,C  10,H  26)    179.1205         0.025135   
    127. D(C   6,C  11,C  10,C   9)     -0.9369         0.025135   
    128. D(H  27,C  11,C   6,C   7)    178.9778         0.024796   
    129. D(C  10,C  11,C   6,C   7)     -0.1246         0.024796   
    130. D(C  10,C  11,C   6,C   1)   -177.7695         0.024796   
    131. D(H  27,C  11,C   6,C   1)      1.3330         0.024796   
    132. D(C  14,C  12,C   8,C   9)    142.1724         0.012752   
    133. D(C  14,C  12,C   8,C   7)    -37.3313         0.012752   
    134. D(O  13,C  12,C   8,C   9)    -34.8944         0.012752   
    135. D(O  13,C  12,C   8,C   7)    145.6018         0.012752   
    136. D(C  19,C  14,C  12,O  13)    -25.9545         0.012874   
    137. D(C  19,C  14,C  12,C   8)    156.9799         0.012874   
    138. D(C  15,C  14,C  12,O  13)    151.1069         0.012874   
    139. D(C  15,C  14,C  12,C   8)    -25.9587         0.012874   
    140. D(H  28,C  15,C  14,C  19)    176.8261         0.024699   
    141. D(H  28,C  15,C  14,C  12)     -0.2115         0.024699   
    142. D(C  16,C  15,C  14,C  19)     -1.7982         0.024699   
    143. D(C  16,C  15,C  14,C  12)   -178.8359         0.024699   
    144. D(H  29,C  16,C  15,H  28)      1.4704         0.026089   
    145. D(H  29,C  16,C  15,C  14)   -179.8639         0.026089   
    146. D(C  17,C  16,C  15,H  28)   -177.5290         0.026089   
    147. D(C  17,C  16,C  15,C  14)      1.1367         0.026089   
    148. D(H  30,C  17,C  16,H  29)     -0.0390         0.026159   
    149. D(H  30,C  17,C  16,C  15)    178.9594         0.026159   
    150. D(C  18,C  17,C  16,H  29)   -179.0246         0.026159   
    151. D(C  18,C  17,C  16,C  15)     -0.0262         0.026159   
    152. D(C  19,C  18,C  17,C  16)     -0.4151         0.026132   
    153. D(H  31,C  18,C  17,H  30)      0.1612         0.026132   
    154. D(H  31,C  18,C  17,C  16)    179.1449         0.026132   
    155. D(C  19,C  18,C  17,H  30)   -179.3989         0.026132   
    156. D(H  32,C  19,C  18,H  31)     -0.3425         0.025764   
    157. D(H  32,C  19,C  18,C  17)    179.2173         0.025764   
    158. D(C  14,C  19,C  18,H  31)   -179.8147         0.025764   
    159. D(C  14,C  19,C  18,C  17)     -0.2549         0.025764   
    160. D(H  32,C  19,C  14,C  15)   -178.1135         0.025122   
    161. D(H  32,C  19,C  14,C  12)     -0.9949         0.025122   
    162. D(C  18,C  19,C  14,C  15)      1.3553         0.025122   
    163. D(C  18,C  19,C  14,C  12)    178.4739         0.025122   
    -----------------------------------------------------------------

Number of atoms                         .... 33
Number of degrees of freedom            .... 163


         *************************************************************
         *                GEOMETRY OPTIMIZATION CYCLE   1            *
         *************************************************************
---------------------------------
CARTESIAN COORDINATES (ANGSTROEM)
---------------------------------
  H      2.196820   -0.911540    0.640440
  C      2.082740   -0.072300   -0.061510
  C      0.617810    0.370390   -0.013130
  C      2.957330    1.046610    0.514000
  O      4.280940    0.777800    0.528310
  O      2.522150    2.086910    0.989660
  C      2.463940   -0.562300   -1.459860
  C      2.327060   -1.928420   -1.785840
  C      2.675940   -2.406380   -3.069240
  C      3.085580   -1.510930   -4.050730
  C      3.203790   -0.155250   -3.747610
  C      2.905090    0.311300   -2.462550
  C      2.634550   -3.853770   -3.422270
  O      2.317120   -4.186580   -4.561160
  C      3.032820   -4.899460   -2.439830
  C      3.931400   -4.623860   -1.400020
  C      4.303560   -5.631040   -0.510100
  C      3.799730   -6.921430   -0.668080
  C      2.923490   -7.206720   -1.714550
  C      2.540880   -6.199460   -2.602470
  H      0.348650    0.710150    0.996290
  H     -0.063730   -0.443910   -0.277690
  H      0.430420    1.208850   -0.696040
  H      4.525170   -0.075950    0.123360
  H      1.942960   -2.622530   -1.044340
  H      3.322250   -1.867050   -5.056060
  H      3.532160    0.538300   -4.521120
  H      3.011820    1.379290   -2.267150
  H      4.369910   -3.639970   -1.277730
  H      4.999000   -5.413070    0.296480
  H      4.103960   -7.707870    0.015690
  H      2.543310   -8.217440   -1.843150
  H      1.867200   -6.432720   -3.423640

----------------------------
CARTESIAN COORDINATES (A.U.)
----------------------------
  NO LB      ZA    FRAG     MASS         X           Y           Z
   0 H     1.0000    0     1.008    4.151388   -1.722561    1.210256
   1 C     6.0000    0    12.011    3.935808   -0.136627   -0.116237
   2 C     6.0000    0    12.011    1.167492    0.699936   -0.024812
   3 C     6.0000    0    12.011    5.588544    1.977806    0.971319
   4 O     8.0000    0    15.999    8.089804    1.469829    0.998361
   5 O     8.0000    0    15.999    4.766173    3.943688    1.870186
   6 C     6.0000    0    12.011    4.656172   -1.062593   -2.758736
   7 C     6.0000    0    12.011    4.397506   -3.644186   -3.374749
   8 C     6.0000    0    12.011    5.056794   -4.547399   -5.800023
   9 C     6.0000    0    12.011    5.830901   -2.855244   -7.654770
  10 C     6.0000    0    12.011    6.054286   -0.293380   -7.081957
  11 C     6.0000    0    12.011    5.489824    0.588272   -4.653545
  12 C     6.0000    0    12.011    4.978578   -7.282570   -6.467153
  13 O     8.0000    0    15.999    4.378722   -7.911490   -8.619343
  14 C     6.0000    0    12.011    5.731199   -9.258638   -4.610611
  15 C     6.0000    0    12.011    7.429269   -8.737829   -2.645654
  16 C     6.0000    0    12.011    8.132550  -10.641123   -0.963949
  17 C     6.0000    0    12.011    7.180449  -13.079607   -1.262488
  18 C     6.0000    0    12.011    5.524595  -13.618727   -3.240030
  19 C     6.0000    0    12.011    4.801567  -11.715282   -4.917956
  20 H     1.0000    0     1.008    0.658853    1.341989    1.882715
  21 H     1.0000    0     1.008   -0.120432   -0.838868   -0.524758
  22 H     1.0000    0     1.008    0.813376    2.284395   -1.315325
  23 H     1.0000    0     1.008    8.551332   -0.143525    0.233117
  24 H     1.0000    0     1.008    3.671662   -4.955863   -1.973517
  25 H     1.0000    0     1.008    6.278143   -3.528213   -9.554569
  26 H     1.0000    0     1.008    6.674815    1.017240   -8.543679
  27 H     1.0000    0     1.008    5.691515    2.606480   -4.284293
  28 H     1.0000    0     1.008    8.257933   -6.878546   -2.414560
  29 H     1.0000    0     1.008    9.446741  -10.229220    0.560266
  30 H     1.0000    0     1.008    7.755360  -14.565763    0.029650
  31 H     1.0000    0     1.008    4.806159  -15.528711   -3.483049
  32 H     1.0000    0     1.008    3.528497  -12.156079   -6.469742

--------------------------------
INTERNAL COORDINATES (ANGSTROEM)
--------------------------------
 H      0   0   0     0.000000000000     0.00000000     0.00000000
 C      1   0   0     1.100032647925     0.00000000     0.00000000
 C      2   1   0     1.531122126220   107.43609156     0.00000000
 C      2   1   3     1.532344287783   104.96512040   115.75297780
 O      4   2   1     1.350706120627   114.70604480    65.19879141
 O      4   2   1     1.223870155695   124.31160293   248.55087537
 C      2   1   3     1.529966065800   108.24276798   239.95517453
 C      7   2   1     1.411128253987   119.80300502    26.62889159
 C      8   7   2     1.413251066159   120.88039706   180.18135158
 C      9   8   7     1.390308689536   119.73577991   356.20510088
 C     10   9   8     1.394174881749   119.85304095     2.69047383
 C     11  10   9     1.399381933605   120.38118030   359.63404766
 C      9   8   7     1.490396298003   122.45861853   175.69959887
 O     13   9   8     1.228248644656   119.33784514   145.60180200
 C     13   9   8     1.489051685671   121.21692114   322.66865420
 C     15  13   9     1.401644110500   121.52314414   334.04126947
 C     16  15  13     1.394586757574   120.16351965   181.16412167
 C     17  16  15     1.394241263699   119.97839134     1.13669734
 C     18  17  16     1.394376700393   120.09819136   359.97380508
 C     19  18  17     1.396196635901   120.12468132   359.58487698
 H      3   2   1     1.098550271767   110.66340032    61.15136141
 H      3   2   1     1.094336902055   111.90596387   301.35835559
 H      3   2   1     1.097495445002   111.38217076   180.14364358
 H      5   4   2     0.975972262874   114.51418183     3.32935275
 H      8   7   2     1.085883857556   119.69556953     0.56445905
 H     10   9   8     1.092484577557   120.23277559   182.22826436
 H     11  10   9     1.089566968800   119.35136251   179.57711042
 H     12  11  10     1.090951462257   118.03268325   179.93591391
 H     16  15  13     1.084105804938   121.42936952   359.78850876
 H     17  16  15     1.087069000064   119.95923000   180.13608655
 H     18  17  16     1.085626629832   119.85583791   178.95939507
 H     19  18  17     1.087487798001   119.90708708   179.14491371
 H     20  19  18     1.087462706901   119.68591544   179.21726704

---------------------------
INTERNAL COORDINATES (A.U.)
---------------------------
 H      0   0   0     0.000000000000     0.00000000     0.00000000
 C      1   0   0     2.078760442950     0.00000000     0.00000000
 C      2   1   0     2.893401496143   107.43609156     0.00000000
 C      2   1   3     2.895711046788   104.96512040   115.75297780
 O      4   2   1     2.552464655397   114.70604480    65.19879141
 O      4   2   1     2.312779417742   124.31160293   248.55087537
 C      2   1   3     2.891216858555   108.24276798   239.95517453
 C      7   2   1     2.666645939874   119.80300502    26.62889159
 C      8   7   2     2.670657473513   120.88039706   180.18135158
 C      9   8   7     2.627302664834   119.73577991   356.20510088
 C     10   9   8     2.634608709298   119.85304095     2.69047383
 C     11  10   9     2.644448611271   120.38118030   359.63404766
 C      9   8   7     2.816440834235   122.45861853   175.69959887
 O     13   9   8     2.321053562760   119.33784514   145.60180200
 C     13   9   8     2.813899885172   121.21692114   322.66865420
 C     15  13   9     2.648723506069   121.52314414   334.04126947
 C     16  15  13     2.635387041808   120.16351965   181.16412167
 C     17  16  15     2.634734153003   119.97839134     1.13669734
 C     18  17  16     2.634990091264   120.09819136   359.97380508
 C     19  18  17     2.638429270954   120.12468132   359.58487698
 H      3   2   1     2.075959157985   110.66340032    61.15136141
 H      3   2   1     2.067997043128   111.90596387   301.35835559
 H      3   2   1     2.073965824280   111.38217076   180.14364358
 H      5   4   2     1.844320291136   114.51418183     3.32935275
 H      8   7   2     2.052023104026   119.69556953     0.56445905
 H     10   9   8     2.064496657115   120.23277559   182.22826436
 H     11  10   9     2.058983175599   119.35136251   179.57711042
 H     12  11  10     2.061599489066   118.03268325   179.93591391
 H     16  15  13     2.048663071527   121.42936952   359.78850876
 H     17  16  15     2.054262698796   119.95923000   180.13608655
 H     18  17  16     2.051537014074   119.85583791   178.95939507
 H     19  18  17     2.055054112202   119.90708708   179.14491371
 H     20  19  18     2.055006696895   119.68591544   179.21726704

---------------------
BASIS SET INFORMATION
---------------------
There are 3 groups of distinct atoms

 Group   1 Type H   : 5s1p contracted to 3s1p pattern {311/1}
 Group   2 Type C   : 11s6p2d1f contracted to 5s3p2d1f pattern {62111/411/11/1}
 Group   3 Type O   : 11s6p2d1f contracted to 5s3p2d1f pattern {62111/411/11/1}

Atom   0H    basis set group =>   1
Atom   1C    basis set group =>   2
Atom   2C    basis set group =>   2
Atom   3C    basis set group =>   2
Atom   4O    basis set group =>   3
Atom   5O    basis set group =>   3
Atom   6C    basis set group =>   2
Atom   7C    basis set group =>   2
Atom   8C    basis set group =>   2
Atom   9C    basis set group =>   2
Atom  10C    basis set group =>   2
Atom  11C    basis set group =>   2
Atom  12C    basis set group =>   2
Atom  13O    basis set group =>   3
Atom  14C    basis set group =>   2
Atom  15C    basis set group =>   2
Atom  16C    basis set group =>   2
Atom  17C    basis set group =>   2
Atom  18C    basis set group =>   2
Atom  19C    basis set group =>   2
Atom  20H    basis set group =>   1
Atom  21H    basis set group =>   1
Atom  22H    basis set group =>   1
Atom  23H    basis set group =>   1
Atom  24H    basis set group =>   1
Atom  25H    basis set group =>   1
Atom  26H    basis set group =>   1
Atom  27H    basis set group =>   1
Atom  28H    basis set group =>   1
Atom  29H    basis set group =>   1
Atom  30H    basis set group =>   1
Atom  31H    basis set group =>   1
Atom  32H    basis set group =>   1
---------------------------------
AUXILIARY/J BASIS SET INFORMATION
---------------------------------
There are 3 groups of distinct atoms

 Group   1 Type H   : 5s2p1d contracted to 3s1p1d pattern {311/2/1}
 Group   2 Type C   : 12s5p4d2f1g contracted to 6s4p3d1f1g pattern {711111/2111/211/2/1}
 Group   3 Type O   : 12s5p4d2f1g contracted to 6s4p3d1f1g pattern {711111/2111/211/2/1}

Atom   0H    basis set group =>   1
Atom   1C    basis set group =>   2
Atom   2C    basis set group =>   2
Atom   3C    basis set group =>   2
Atom   4O    basis set group =>   3
Atom   5O    basis set group =>   3
Atom   6C    basis set group =>   2
Atom   7C    basis set group =>   2
Atom   8C    basis set group =>   2
Atom   9C    basis set group =>   2
Atom  10C    basis set group =>   2
Atom  11C    basis set group =>   2
Atom  12C    basis set group =>   2
Atom  13O    basis set group =>   3
Atom  14C    basis set group =>   2
Atom  15C    basis set group =>   2
Atom  16C    basis set group =>   2
Atom  17C    basis set group =>   2
Atom  18C    basis set group =>   2
Atom  19C    basis set group =>   2
Atom  20H    basis set group =>   1
Atom  21H    basis set group =>   1
Atom  22H    basis set group =>   1
Atom  23H    basis set group =>   1
Atom  24H    basis set group =>   1
Atom  25H    basis set group =>   1
Atom  26H    basis set group =>   1
Atom  27H    basis set group =>   1
Atom  28H    basis set group =>   1
Atom  29H    basis set group =>   1
Atom  30H    basis set group =>   1
Atom  31H    basis set group =>   1
Atom  32H    basis set group =>   1
------------------------------------------------------------------------------
                             ORCA STARTUP CALCULATIONS
                           -- RI-GTO INTEGRALS CHOSEN --
------------------------------------------------------------------------------
------------------------------------------------------------------------------
                   ___                                                        
                  /   \      - P O W E R E D   B Y -                         
                 /     \                                                     
                 |  |  |   _    _      __       _____    __    __             
                 |  |  |  | |  | |    /  \     |  _  \  |  |  /  |          
                  \  \/   | |  | |   /    \    | | | |  |  | /  /          
                 / \  \   | |__| |  /  /\  \   | |_| |  |  |/  /          
                |  |  |   |  __  | /  /__\  \  |    /   |      \           
                |  |  |   | |  | | |   __   |  |    \   |  |\   \          
                \     /   | |  | | |  |  |  |  | |\  \  |  | \   \       
                 \___/    |_|  |_| |__|  |__|  |_| \__\ |__|  \__/        
                                                                              
                      - O R C A' S   B I G   F R I E N D -                    
                                      &                                       
                       - I N T E G R A L  F E E D E R -                       
                                                                              
 v1 FN, 2020, v2 2021, v3 2022-2024                                           
------------------------------------------------------------------------------


----------------------
SHARK INTEGRAL PACKAGE
----------------------

Number of atoms                             ...     33
Number of basis functions                   ...    673
Number of shells                            ...    265
Maximum angular momentum                    ...      3
Integral batch strategy                     ... SHARK/LIBINT Hybrid
RI-J (if used) integral strategy            ... SPLIT-RIJ (Revised 2003 algorithm where possible)
Printlevel                                  ...      1
Contraction scheme used                     ... SEGMENTED contraction
Prescreening option                         ... SCHWARTZ
   Thresh                                   ... 2.500e-11
   Tcut                                     ... 2.500e-12
   Tpresel                                  ... 2.500e-12 
Coulomb Range Separation                    ... NOT USED
Exchange Range Separation                   ... NOT USED
Multipole approximations                    ... NOT USED
Finite Nucleus Model                        ... NOT USED
CABS basis                                  ... NOT available
Auxiliary Coulomb fitting basis             ... AVAILABLE
   # of basis functions in Aux-J            ...   1085
   # of shells in Aux-J                     ...    355
   Maximum angular momentum in Aux-J        ...      4
Auxiliary J/K fitting basis                 ... NOT available
Auxiliary Correlation fitting basis         ... NOT available
Auxiliary 'external' fitting basis          ... NOT available

Checking pre-screening integrals            ... done (  0.0 sec) Dimension = 265
Check shell pair data                       ... done (  0.0 sec)
Shell pair information
Shell pair cut-off parameter TPreSel        ...   2.5e-12
Total number of shell pairs                 ...     35245
Shell pairs after pre-screening             ...     25612
Total number of primitive shell pairs       ...    108340
Primitive shell pairs kept                  ...     53283
          la=0 lb=0:   6632 shell pairs
          la=1 lb=0:   7375 shell pairs
          la=1 lb=1:   2070 shell pairs
          la=2 lb=0:   3661 shell pairs
          la=2 lb=1:   2043 shell pairs
          la=2 lb=2:    522 shell pairs
          la=3 lb=0:   1724 shell pairs
          la=3 lb=1:    982 shell pairs
          la=3 lb=2:    483 shell pairs
          la=3 lb=3:    120 shell pairs

Calculating one electron integrals          ... done (  0.1 sec)
Calculating RI/J V-Matrix + Cholesky decomp.... done (  0.0 sec)
Calculating Nuclear repulsion               ... done (  0.0 sec) ENN=   1307.795155383169 Eh

Diagonalization of the overlap matrix:
Smallest eigenvalue                        ... 6.976e-06
Time for diagonalization                   ...    0.032 sec
Threshold for overlap eigenvalues          ... 1.000e-07
Number of eigenvalues below threshold      ... 0
Time for construction of square roots      ...    0.023 sec
Total time needed                          ...    0.058 sec

-------------------
DFT GRID GENERATION
-------------------

General Integration Accuracy     IntAcc      ... 4.388
Radial Grid Type                 RadialGrid  ... OptM3 with GC (2021)
Angular Grid (max. ang.)         AngularGrid ... 4 (Lebedev-302)
Angular grid pruning method      GridPruning ... 4 (adaptive)
Weight generation scheme         WeightScheme... mBecke (2022)
Basis function cutoff            BFCut       ... 1.0000e-11
Integration weight cutoff        WCut        ... 1.0000e-14
Partially contracted basis set               ... off
Rotationally invariant grid construction     ... off
Angular grids for H and He will be reduced by one unit

Total number of grid points                  ...   158492
Total number of batches                      ...     2493
Average number of points per batch           ...       63
Average number of grid points per atom       ...     4803
Initializing property integral containers    ... done (  0.0 sec)

SHARK setup successfully completed in   1.6 seconds

Maximum memory used throughout the entire STARTUP-calculation: 114.1 MB
-------------------------------------------------------------------------------
                                 ORCA GUESS
                   Start orbitals & Density for SCF / CASSCF
-------------------------------------------------------------------------------

------------
SCF SETTINGS
------------
Hamiltonian:
 Density Functional     Method          .... DFT(GTOs)
 Exchange Functional    Exchange        .... PBE
   PBE kappa parameter   XKappa         ....  0.804000
   PBE mue parameter    XMuePBE         ....  0.219520
 Correlation Functional Correlation     .... PBE
   PBE beta parameter  CBetaPBE         ....  0.066725
 LDA part of GGA corr.  LDAOpt          .... PW91-LDA
 Gradients option       PostSCFGGA      .... off
   NL short-range parameter             ....  6.400000
 RI-approximation to the Coulomb term is turned on
   Number of AuxJ basis functions       .... 1085


General Settings:
 Integral files         IntName         .... Dexketoprofen\Dexketoprofen_PBE_def2-TZVP\Dexketoprofen_PBE_def2-TZVP.orcainp
 Hartree-Fock type      HFTyp           .... RHF
 Total Charge           Charge          ....    0
 Multiplicity           Mult            ....    1
 Number of Electrons    NEL             ....  134
 Basis Dimension        Dim             ....  673
 Nuclear Repulsion      ENuc            ....   1307.7951553832 Eh

Convergence Acceleration:
 AO-DIIS                CNVDIIS         .... on
   Start iteration      DIISMaxIt       ....    12
   Startup error        DIISStart       ....  0.200000
   # of expansion vecs  DIISMaxEq       ....     5
   Bias factor          DIISBfac        ....   1.050
   Max. coefficient     DIISMaxC        ....  10.000
 MO-DIIS                CNVKDIIS        .... off
 Trust-Rad. Augm. Hess. CNVTRAH         .... auto
   Auto Start mean grad. ratio tolernc. ....  1.125000
   Auto Start start iteration           ....    50
   Auto Start num. interpolation iter.  ....    10
   Max. Number of Micro iterations      ....    24
   Max. Number of Macro iterations      .... Maxiter - #DIIS iter
   Number of Davidson start vectors     ....     2
   Converg. threshold    (grad. norm)   ....   1.000e-05
   Grad. Scal. Fac. for Micro threshold ....   0.100
   Minimum threshold for Micro iter.    ....   1.000e-02
   NR start threshold (gradient norm)   ....   1.000e-04
   Initial trust radius                 ....   0.400
   Minimum AH scaling param. (alpha)    ....   1.000
   Maximum AH scaling param. (alpha)    .... 1000.000
   Quad. conv. algorithm                .... NR
   White noise on init. David. guess    .... on
   Maximum white noise                  ....   0.010
   Pseudo random numbers                .... off
   Inactive MOs                         .... canonical
   Orbital update algorithm             .... Taylor
   Preconditioner                       .... Diag
   Full preconditioner red. dimension   ....   250
 SOSCF                  CNVSOSCF        .... on
   Start iteration      SOSCFMaxIt      ....   150
   Startup grad/error   SOSCFStart      ....  0.003300
   Hessian update       SOSCFHessUp     .... L-BFGS
 Level Shifting         CNVShift        .... on
   Level shift para.    LevelShift      ....    0.2500
   Turn off err/grad.   ShiftErr        ....    0.0010
 Zerner damping         CNVZerner       .... off
 Static damping         CNVDamp         .... on
   Fraction old density DampFac         ....    0.7000
   Max. Damping (<1)    DampMax         ....    0.9800
   Min. Damping (>=0)   DampMin         ....    0.0000
   Turn off err/grad.   DampErr         ....    0.1000

SCF Procedure:
 Maximum # iterations   MaxIter         ....   125
 SCF integral mode      SCFMode         .... Direct
   Integral package                     .... SHARK and LIBINT hybrid scheme
 Reset frequency        DirectResetFreq ....    20
 Integral Threshold     Thresh          ....  2.500e-11 Eh
 Primitive CutOff       TCut            ....  2.500e-12 Eh

Convergence Tolerance:
 Convergence Check Mode ConvCheckMode   .... Total+1el-Energy
 Convergence forced     ConvForced      .... 0
 Energy Change          TolE            ....  1.000e-08 Eh
 1-El. energy change                    ....  1.000e-05 Eh
 Orbital Gradient       TolG            ....  1.000e-05
 Orbital Rotation angle TolX            ....  1.000e-05
 DIIS Error             TolErr          ....  5.000e-07

------------------------------
INITIAL GUESS: MODEL POTENTIAL
------------------------------
Loading Hartree-Fock densities                     ... done
Calculating cut-offs                               ... done
Initializing the effective Hamiltonian             ... done
Setting up the integral package (SHARK)            ... done
Starting the Coulomb interaction                   ... done (   0.9 sec)
Making the grid                                    ... done (   0.3 sec)
Mapping shells                                     ... done
Starting the XC term evaluation                    ... done (   1.0 sec)
  promolecular density results
     # of electrons  =    133.999313706
     EX              =   -110.371157789
     EC              =     -4.475780849
     EX+EC           =   -114.846938638
Transforming the Hamiltonian                       ... done (   0.0 sec)
Diagonalizing the Hamiltonian                      ... done (   0.0 sec)
Back transforming the eigenvectors                 ... done (   0.0 sec)
Now organizing SCF variables                       ... done
                      ------------------
                      INITIAL GUESS DONE (   2.3 sec)
                      ------------------
             **** ENERGY FILE WAS UPDATED (Dexketoprofen\Dexketoprofen_PBE_def2-TZVP\Dexketoprofen_PBE_def2-TZVP.orcainp.en.tmp) ****
Finished Guess after   2.4 sec
Maximum memory used throughout the entire GUESS-calculation: 84.1 MB

-------------------------------------------------------------------------------------------
                                      ORCA LEAN-SCF
                              memory conserving SCF solver
-------------------------------------------------------------------------------------------

--------------------
CPCM SOLVATION MODEL
--------------------
CPCM parameters:
  Epsilon                                         ...      80.1510
  Refrac                                          ...       1.3328
  Rsolv                                           ...       1.3000
  Surface type                                    ... GAUSSIAN VDW
  Discretization scheme                           ... Constant charge density
    Threshold for H atoms                         ...       5.0000 (charges/Ang^2)
    Threshold for non-H atoms                     ...       5.0000 (charges/Ang^2)
  Epsilon function type                           ...         CPCM
Solvent:                                          ... WATER
Radii:
  Scheme                                          ... Element-dependent radii
  Radius for H  used is    2.4944 Bohr (=   1.3200 Ang.)
  Radius for C  used is    3.8550 Bohr (=   2.0400 Ang.)
  Radius for O  used is    3.4469 Bohr (=   1.8240 Ang.)
Calculating surface                               ...        done! (  0.0s)
Cavity surface points                             ...         2978
Cavity Volume                                     ...    2094.2618
Cavity Surface-area                               ...    1087.9373
Calculating surface distance matrix               ...        done! (  0.0s)
Performing Cholesky decomposition & store         ...        done! (  0.2s)
Overall time for CPCM initialization              ...                 0.2s

----------------------------------------D-I-I-S--------------------------------------------
Iteration    Energy (Eh)           Delta-E    RMSDP     MaxDP     DIISErr   Damp  Time(sec)
-------------------------------------------------------------------------------------------
               ***  Starting incremental Fock matrix formation  ***
    1    -842.6911957860506845     0.00e+00  1.79e-03  2.80e-01  2.69e-01  0.700   7.9
Warning: op=0 Small HOMO/LUMO gap (   0.096) - skipping pre-diagonalization
         Will do a full diagonalization
    2    -842.9112053853282305    -2.20e-01  1.46e-03  2.27e-01  8.10e-02  0.700   7.3
                               ***Turning on AO-DIIS***
    3    -842.9844672814574551    -7.33e-02  5.17e-04  4.78e-02  2.32e-02  0.700   7.1
    4    -843.0298914289364802    -4.54e-02  6.65e-04  3.52e-02  1.07e-02  0.000   6.8
    5    -843.1327419780127457    -1.03e-01  3.90e-04  5.60e-02  5.99e-03  0.000   6.9
                              *** Initializing SOSCF ***
---------------------------------------S-O-S-C-F--------------------------------------
Iteration    Energy (Eh)           Delta-E    RMSDP     MaxDP     MaxGrad    Time(sec)
--------------------------------------------------------------------------------------
    6    -843.1335451819604714    -8.03e-04  1.29e-04  1.43e-02  2.45e-03     6.6
               *** Restarting incremental Fock matrix formation ***
    7    -843.1336017763351265    -5.66e-05  1.14e-04  1.06e-02  5.57e-04     7.8
    8    -843.1335584134408236     4.34e-05  4.32e-05  4.48e-03  1.57e-03     6.1
    9    -843.1336131687194211    -5.48e-05  1.52e-05  1.04e-03  8.26e-05     5.9
   10    -843.1336117830778676     1.39e-06  5.95e-06  4.01e-04  1.58e-04     5.7
   11    -843.1336136751060621    -1.89e-06  4.74e-06  4.10e-04  2.91e-05     5.5
   12    -843.1336135532619664     1.22e-07  2.34e-06  2.56e-04  4.21e-05     5.4
   13    -843.1336137422927095    -1.89e-07  2.20e-06  3.00e-04  1.12e-05     5.3
   14    -843.1336137284906727     1.38e-08  1.00e-06  2.12e-04  2.70e-05     5.1
   15    -843.1336137508683350    -2.24e-08  1.69e-06  1.85e-04  3.45e-06     5.0
   16    -843.1336137417561076     9.11e-09  9.85e-07  8.90e-05  4.96e-06     4.8
                 **** Energy Check signals convergence ****

               *****************************************************
               *                     SUCCESS                       *
               *           SCF CONVERGED AFTER  16 CYCLES          *
               *****************************************************

             **** ENERGY FILE WAS UPDATED (Dexketoprofen\Dexketoprofen_PBE_def2-TZVP\Dexketoprofen_PBE_def2-TZVP.orcainp.en.tmp) ****

----------------
TOTAL SCF ENERGY
----------------

Total Energy       :       -843.13361374175611 Eh          -22942.83202 eV

Components:
Nuclear Repulsion  :       1307.79515538316900 Eh           35586.91538 eV
Electronic Energy  :      -2150.89942656606854 Eh          -58528.94895 eV
One Electron Energy:      -3742.07715436037552 Eh         -101827.09616 eV
Two Electron Energy:       1591.17772779430720 Eh           43298.14721 eV
CPCM Dielectric    :         -0.02934255885710 Eh              -0.79845 eV

Virial components:
Potential Energy   :      -1682.50958218875621 Eh          -45783.41332 eV
Kinetic Energy     :        839.37596844700022 Eh           22840.58129 eV
Virial Ratio       :          2.00447671298204

DFT components:
N(Alpha)           :       67.000025767127 electrons
N(Beta)            :       67.000025767127 electrons
N(Total)           :      134.000051534254 electrons
E(X)               :     -112.350907738637 Eh       
E(C)               :       -4.476516392431 Eh       
E(XC)              :     -116.827424131067 Eh       

CPCM Solvation Model Properties:
Surface-charge          :         -0.03149945920215
Corrected charge        :          0.00000000000000
Outlying charge corr.   :          0.00005500933777 Eh               0.00150 eV
Free-energy (cav+disp)  :  This term is not implemented in the current solvation scheme

---------------
SCF CONVERGENCE
---------------

  Last Energy change         ...   -9.1122e-09  Tolerance :   1.0000e-08
  Last MAX-Density change    ...    8.9030e-05  Tolerance :   1.0000e-07
  Last RMS-Density change    ...    9.8499e-07  Tolerance :   5.0000e-09
  Last DIIS Error            ...    2.4511e-03  Tolerance :   5.0000e-07
  Last Orbital Gradient      ...    4.9609e-06  Tolerance :   1.0000e-05
  Last Orbital Rotation      ...    5.8281e-06  Tolerance :   1.0000e-05


----------------
ORBITAL ENERGIES
----------------

  NO   OCC          E(Eh)            E(eV) 
   0   2.0000     -18.802831      -511.6510 
   1   2.0000     -18.749179      -510.1911 
   2   2.0000     -18.743802      -510.0448 
   3   2.0000     -10.018884      -272.6277 
   4   2.0000      -9.975036      -271.4345 
   5   2.0000      -9.916248      -269.8348 
   6   2.0000      -9.916085      -269.8304 
   7   2.0000      -9.907277      -269.5907 
   8   2.0000      -9.905394      -269.5395 
   9   2.0000      -9.904292      -269.5095 
  10   2.0000      -9.900914      -269.4176 
  11   2.0000      -9.899069      -269.3674 
  12   2.0000      -9.897938      -269.3366 
  13   2.0000      -9.897859      -269.3344 
  14   2.0000      -9.896836      -269.3066 
  15   2.0000      -9.896471      -269.2967 
  16   2.0000      -9.894519      -269.2435 
  17   2.0000      -9.894012      -269.2298 
  18   2.0000      -9.875671      -268.7307 
  19   2.0000      -1.016371       -27.6569 
  20   2.0000      -0.959363       -26.1056 
  21   2.0000      -0.938988       -25.5512 
  22   2.0000      -0.798665       -21.7328 
  23   2.0000      -0.790610       -21.5136 
  24   2.0000      -0.739328       -20.1181 
  25   2.0000      -0.708585       -19.2816 
  26   2.0000      -0.687817       -18.7165 
  27   2.0000      -0.682953       -18.5841 
  28   2.0000      -0.671469       -18.2716 
  29   2.0000      -0.600463       -16.3394 
  30   2.0000      -0.598033       -16.2733 
  31   2.0000      -0.567347       -15.4383 
  32   2.0000      -0.563177       -15.3248 
  33   2.0000      -0.553737       -15.0679 
  34   2.0000      -0.540621       -14.7111 
  35   2.0000      -0.509087       -13.8530 
  36   2.0000      -0.485895       -13.2219 
  37   2.0000      -0.460244       -12.5239 
  38   2.0000      -0.452493       -12.3130 
  39   2.0000      -0.431460       -11.7406 
  40   2.0000      -0.424719       -11.5572 
  41   2.0000      -0.417437       -11.3590 
  42   2.0000      -0.414670       -11.2837 
  43   2.0000      -0.409044       -11.1306 
  44   2.0000      -0.396745       -10.7960 
  45   2.0000      -0.390240       -10.6190 
  46   2.0000      -0.383098       -10.4246 
  47   2.0000      -0.381587       -10.3835 
  48   2.0000      -0.376497       -10.2450 
  49   2.0000      -0.376203       -10.2370 
  50   2.0000      -0.363118        -9.8809 
  51   2.0000      -0.354109        -9.6358 
  52   2.0000      -0.338429        -9.2091 
  53   2.0000      -0.331428        -9.0186 
  54   2.0000      -0.324144        -8.8204 
  55   2.0000      -0.319318        -8.6891 
  56   2.0000      -0.315661        -8.5896 
  57   2.0000      -0.313602        -8.5335 
  58   2.0000      -0.305966        -8.3258 
  59   2.0000      -0.301057        -8.1922 
  60   2.0000      -0.290373        -7.9015 
  61   2.0000      -0.249435        -6.7875 
  62   2.0000      -0.245643        -6.6843 
  63   2.0000      -0.243973        -6.6388 
  64   2.0000      -0.241435        -6.5698 
  65   2.0000      -0.235468        -6.4074 
  66   2.0000      -0.217274        -5.9123 
  67   0.0000      -0.106234        -2.8908 
  68   0.0000      -0.062131        -1.6907 
  69   0.0000      -0.057630        -1.5682 
  70   0.0000      -0.049787        -1.3548 
  71   0.0000      -0.046237        -1.2582 
  72   0.0000      -0.001468        -0.0399 
  73   0.0000       0.006340         0.1725 
  74   0.0000       0.036784         1.0009 
  75   0.0000       0.039628         1.0783 
  76   0.0000       0.047826         1.3014 
  77   0.0000       0.055237         1.5031 
*Only the first 10 virtual orbitals were printed.

                    ********************************
                    * MULLIKEN POPULATION ANALYSIS *
                    ********************************

-----------------------
MULLIKEN ATOMIC CHARGES
-----------------------
   0 H :    0.138785
   1 C :   -0.020221
   2 C :   -0.424655
   3 C :    0.227993
   4 O :   -0.318858
   5 O :   -0.331873
   6 C :    0.151584
   7 C :   -0.410167
   8 C :    0.258577
   9 C :   -0.212756
  10 C :   -0.125198
  11 C :   -0.172919
  12 C :    0.163145
  13 O :   -0.338176
  14 C :    0.162764
  15 C :   -0.223070
  16 C :   -0.132148
  17 C :   -0.120084
  18 C :   -0.126658
  19 C :   -0.207237
  20 H :    0.136080
  21 H :    0.139214
  22 H :    0.133132
  23 H :    0.368347
  24 H :    0.148128
  25 H :    0.135140
  26 H :    0.143428
  27 H :    0.136736
  28 H :    0.160019
  29 H :    0.142525
  30 H :    0.143610
  31 H :    0.142151
  32 H :    0.132662
Sum of atomic charges:    0.0000000

--------------------------------
MULLIKEN REDUCED ORBITAL CHARGES
--------------------------------
  0 H s       :     0.839162  s :     0.839162
      pz      :     0.007924  p :     0.022053
      px      :     0.004616
      py      :     0.009513

  1 C s       :     3.110087  s :     3.110087
      pz      :     0.899091  p :     2.779614
      px      :     0.927394
      py      :     0.953129
      dz2     :     0.017500  d :     0.123372
      dxz     :     0.032822
      dyz     :     0.025240
      dx2y2   :     0.020291
      dxy     :     0.027519
      f0      :     0.001283  f :     0.007149
      f+1     :     0.000787
      f-1     :     0.000976
      f+2     :     0.001085
      f-2     :     0.000687
      f+3     :     0.001173
      f-3     :     0.001158

  2 C s       :     3.277515  s :     3.277515
      pz      :     1.087926  p :     3.092469
      px      :     0.936917
      py      :     1.067625
      dz2     :     0.005333  d :     0.051387
      dxz     :     0.014346
      dyz     :     0.007986
      dx2y2   :     0.007971
      dxy     :     0.015751
      f0      :     0.000584  f :     0.003285
      f+1     :     0.000167
      f-1     :     0.000426
      f+2     :     0.000426
      f-2     :     0.000149
      f+3     :     0.000928
      f-3     :     0.000605

  3 C s       :     3.092871  s :     3.092871
      pz      :     0.802842  p :     2.415946
      px      :     0.783141
      py      :     0.829963
      dz2     :     0.024131  d :     0.240376
      dxz     :     0.045596
      dyz     :     0.034115
      dx2y2   :     0.067752
      dxy     :     0.068782
      f0      :     0.001846  f :     0.022815
      f+1     :     0.001332
      f-1     :     0.002941
      f+2     :     0.004022
      f-2     :     0.002078
      f+3     :     0.004586
      f-3     :     0.006008

  4 O s       :     3.739582  s :     3.739582
      pz      :     1.680834  p :     4.548747
      px      :     1.395263
      py      :     1.472650
      dz2     :     0.003160  d :     0.028834
      dxz     :     0.005454
      dyz     :     0.004284
      dx2y2   :     0.010943
      dxy     :     0.004994
      f0      :     0.000298  f :     0.001695
      f+1     :     0.000215
      f-1     :     0.000102
      f+2     :     0.000296
      f-2     :     0.000136
      f+3     :     0.000304
      f-3     :     0.000345

  5 O s       :     3.787935  s :     3.787935
      pz      :     1.425084  p :     4.512994
      px      :     1.694386
      py      :     1.393524
      dz2     :     0.004740  d :     0.029185
      dxz     :     0.002628
      dyz     :     0.007519
      dx2y2   :     0.007454
      dxy     :     0.006844
      f0      :     0.000083  f :     0.001759
      f+1     :     0.000086
      f-1     :     0.000344
      f+2     :     0.000237
      f-2     :     0.000262
      f+3     :     0.000326
      f-3     :     0.000421

  6 C s       :     3.137044  s :     3.137044
      pz      :     0.815218  p :     2.571920
      px      :     0.928833
      py      :     0.827870
      dz2     :     0.032774  d :     0.130298
      dxz     :     0.017988
      dyz     :     0.038817
      dx2y2   :     0.016937
      dxy     :     0.023782
      f0      :     0.001775  f :     0.009154
      f+1     :     0.000930
      f-1     :     0.001762
      f+2     :     0.001714
      f-2     :     0.000902
      f+3     :     0.001291
      f-3     :     0.000781

  7 C s       :     3.434963  s :     3.434963
      pz      :     0.951536  p :     2.878478
      px      :     0.951703
      py      :     0.975239
      dz2     :     0.015763  d :     0.089915
      dxz     :     0.013242
      dyz     :     0.033274
      dx2y2   :     0.009443
      dxy     :     0.018193
      f0      :     0.001216  f :     0.006811
      f+1     :     0.000837
      f-1     :     0.001136
      f+2     :     0.001208
      f-2     :     0.000658
      f+3     :     0.001200
      f-3     :     0.000555

  8 C s       :     3.132732  s :     3.132732
      pz      :     0.788851  p :     2.475254
      px      :     0.930743
      py      :     0.755659
      dz2     :     0.034855  d :     0.124050
      dxz     :     0.021491
      dyz     :     0.031334
      dx2y2   :     0.020376
      dxy     :     0.015994
      f0      :     0.001862  f :     0.009388
      f+1     :     0.000902
      f-1     :     0.001912
      f+2     :     0.001767
      f-2     :     0.001057
      f+3     :     0.001000
      f-3     :     0.000887

  9 C s       :     3.275393  s :     3.275393
      pz      :     0.943093  p :     2.839753
      px      :     0.953537
      py      :     0.943123
      dz2     :     0.021737  d :     0.090704
      dxz     :     0.006867
      dyz     :     0.027263
      dx2y2   :     0.014206
      dxy     :     0.020631
      f0      :     0.001046  f :     0.006905
      f+1     :     0.000483
      f-1     :     0.001254
      f+2     :     0.001352
      f-2     :     0.000686
      f+3     :     0.001359
      f-3     :     0.000724

 10 C s       :     3.206024  s :     3.206024
      pz      :     0.927466  p :     2.824913
      px      :     0.958603
      py      :     0.938844
      dz2     :     0.015805  d :     0.087430
      dxz     :     0.011870
      dyz     :     0.034862
      dx2y2   :     0.009569
      dxy     :     0.015324
      f0      :     0.001281  f :     0.006831
      f+1     :     0.000914
      f-1     :     0.001137
      f+2     :     0.001212
      f-2     :     0.000503
      f+3     :     0.001271
      f-3     :     0.000513

 11 C s       :     3.276103  s :     3.276103
      pz      :     0.886424  p :     2.803774
      px      :     0.965006
      py      :     0.952344
      dz2     :     0.026180  d :     0.086306
      dxz     :     0.020029
      dyz     :     0.020711
      dx2y2   :     0.013429
      dxy     :     0.005957
      f0      :     0.001490  f :     0.006736
      f+1     :     0.001020
      f-1     :     0.001134
      f+2     :     0.001152
      f-2     :     0.000810
      f+3     :     0.000425
      f-3     :     0.000704

 12 C s       :     3.175180  s :     3.175180
      pz      :     0.800538  p :     2.447538
      px      :     0.782625
      py      :     0.864375
      dz2     :     0.048686  d :     0.197143
      dxz     :     0.033704
      dyz     :     0.068417
      dx2y2   :     0.017911
      dxy     :     0.028424
      f0      :     0.004097  f :     0.016994
      f+1     :     0.002570
      f-1     :     0.004349
      f+2     :     0.002497
      f-2     :     0.001593
      f+3     :     0.001128
      f-3     :     0.000760

 13 O s       :     3.796061  s :     3.796061
      pz      :     1.379185  p :     4.511142
      px      :     1.362438
      py      :     1.769520
      dz2     :     0.009723  d :     0.029291
      dxz     :     0.008676
      dyz     :     0.007873
      dx2y2   :     0.001557
      dxy     :     0.001461
      f0      :     0.000517  f :     0.001681
      f+1     :     0.000367
      f-1     :     0.000418
      f+2     :     0.000167
      f-2     :     0.000172
      f+3     :     0.000016
      f-3     :     0.000025

 14 C s       :     3.172155  s :     3.172155
      pz      :     0.851809  p :     2.532241
      px      :     0.872233
      py      :     0.808199
      dz2     :     0.023527  d :     0.123493
      dxz     :     0.014996
      dyz     :     0.036179
      dx2y2   :     0.022433
      dxy     :     0.026359
      f0      :     0.001611  f :     0.009347
      f+1     :     0.000997
      f-1     :     0.001119
      f+2     :     0.001691
      f-2     :     0.001659
      f+3     :     0.000888
      f-3     :     0.001381

 15 C s       :     3.278170  s :     3.278170
      pz      :     0.935432  p :     2.847047
      px      :     0.915954
      py      :     0.995662
      dz2     :     0.027493  d :     0.091001
      dxz     :     0.014321
      dyz     :     0.015114
      dx2y2   :     0.016951
      dxy     :     0.017122
      f0      :     0.000958  f :     0.006851
      f+1     :     0.000850
      f-1     :     0.001121
      f+2     :     0.001137
      f-2     :     0.001344
      f+3     :     0.000826
      f-3     :     0.000616

 16 C s       :     3.201904  s :     3.201904
      pz      :     0.958031  p :     2.837212
      px      :     0.960212
      py      :     0.918969
      dz2     :     0.014090  d :     0.086239
      dxz     :     0.012495
      dyz     :     0.020519
      dx2y2   :     0.021082
      dxy     :     0.018052
      f0      :     0.000766  f :     0.006792
      f+1     :     0.000696
      f-1     :     0.000963
      f+2     :     0.001207
      f-2     :     0.001111
      f+3     :     0.000692
      f-3     :     0.001357

 17 C s       :     3.204786  s :     3.204786
      pz      :     0.945384  p :     2.821357
      px      :     0.928842
      py      :     0.947131
      dz2     :     0.013408  d :     0.087205
      dxz     :     0.008906
      dyz     :     0.028905
      dx2y2   :     0.016095
      dxy     :     0.019892
      f0      :     0.001181  f :     0.006735
      f+1     :     0.000765
      f-1     :     0.000514
      f+2     :     0.001222
      f-2     :     0.001195
      f+3     :     0.000712
      f-3     :     0.001146

 18 C s       :     3.203766  s :     3.203766
      pz      :     0.927016  p :     2.829508
      px      :     0.945291
      py      :     0.957201
      dz2     :     0.024853  d :     0.086615
      dxz     :     0.014136
      dyz     :     0.015988
      dx2y2   :     0.015830
      dxy     :     0.015807
      f0      :     0.000962  f :     0.006769
      f+1     :     0.000825
      f-1     :     0.001098
      f+2     :     0.001209
      f-2     :     0.001289
      f+3     :     0.000728
      f-3     :     0.000657

 19 C s       :     3.277386  s :     3.277386
      pz      :     0.941497  p :     2.833131
      px      :     0.967048
      py      :     0.924587
      dz2     :     0.015579  d :     0.089869
      dxz     :     0.013063
      dyz     :     0.021079
      dx2y2   :     0.020908
      dxy     :     0.019239
      f0      :     0.000790  f :     0.006851
      f+1     :     0.000698
      f-1     :     0.000976
      f+2     :     0.001223
      f-2     :     0.001067
      f+3     :     0.000750
      f-3     :     0.001348

 20 H s       :     0.842652  s :     0.842652
      pz      :     0.010671  p :     0.021267
      px      :     0.005034
      py      :     0.005563

 21 H s       :     0.839676  s :     0.839676
      pz      :     0.005113  p :     0.021110
      px      :     0.007735
      py      :     0.008262

 22 H s       :     0.845890  s :     0.845890
      pz      :     0.007333  p :     0.020978
      px      :     0.004688
      py      :     0.008957

 23 H s       :     0.587217  s :     0.587217
      pz      :     0.014666  p :     0.044436
      px      :     0.010734
      py      :     0.019036

 24 H s       :     0.829792  s :     0.829792
      pz      :     0.008356  p :     0.022080
      px      :     0.005811
      py      :     0.007914

 25 H s       :     0.842937  s :     0.842937
      pz      :     0.011983  p :     0.021923
      px      :     0.004923
      py      :     0.005017

 26 H s       :     0.834828  s :     0.834828
      pz      :     0.008617  p :     0.021743
      px      :     0.005515
      py      :     0.007611

 27 H s       :     0.841462  s :     0.841462
      pz      :     0.004141  p :     0.021802
      px      :     0.004673
      py      :     0.012989

 28 H s       :     0.817641  s :     0.817641
      pz      :     0.004291  p :     0.022339
      px      :     0.005948
      py      :     0.012100

 29 H s       :     0.835699  s :     0.835699
      pz      :     0.009327  p :     0.021776
      px      :     0.008228
      py      :     0.004220

 30 H s       :     0.834656  s :     0.834656
      pz      :     0.007867  p :     0.021733
      px      :     0.005044
      py      :     0.008822

 31 H s       :     0.836079  s :     0.836079
      pz      :     0.004255  p :     0.021769
      px      :     0.005522
      py      :     0.011992

 32 H s       :     0.845178  s :     0.845178
      pz      :     0.009962  p :     0.022160
      px      :     0.007914
      py      :     0.004284



                     *******************************
                     * LOEWDIN POPULATION ANALYSIS *
                     *******************************

----------------------
LOEWDIN ATOMIC CHARGES
----------------------
   0 H :    0.189572
   1 C :   -0.216542
   2 C :   -0.274401
   3 C :   -0.478841
   4 O :    0.126683
   5 O :    0.077548
   6 C :   -0.122413
   7 C :   -0.053804
   8 C :   -0.119217
   9 C :   -0.094232
  10 C :   -0.128528
  11 C :   -0.094663
  12 C :   -0.256410
  13 O :    0.106170
  14 C :   -0.124003
  15 C :   -0.091258
  16 C :   -0.135037
  17 C :   -0.126237
  18 C :   -0.133698
  19 C :   -0.088415
  20 H :    0.131741
  21 H :    0.129911
  22 H :    0.131153
  23 H :    0.217286
  24 H :    0.164875
  25 H :    0.160027
  26 H :    0.156766
  27 H :    0.162054
  28 H :    0.162031
  29 H :    0.154969
  30 H :    0.154804
  31 H :    0.154814
  32 H :    0.157297

-------------------------------
LOEWDIN REDUCED ORBITAL CHARGES
-------------------------------
  0 H s       :     0.751786  s :     0.751786
      pz      :     0.020587  p :     0.058641
      px      :     0.013030
      py      :     0.025024

  1 C s       :     2.734669  s :     2.734669
      pz      :     0.968454  p :     2.959133
      px      :     1.003631
      py      :     0.987048
      dz2     :     0.081312  d :     0.473898
      dxz     :     0.098202
      dyz     :     0.105502
      dx2y2   :     0.087425
      dxy     :     0.101458
      f0      :     0.007794  f :     0.048841
      f+1     :     0.006397
      f-1     :     0.005335
      f+2     :     0.008403
      f-2     :     0.005909
      f+3     :     0.007623
      f-3     :     0.007380

  2 C s       :     2.833492  s :     2.833492
      pz      :     1.079281  p :     3.162241
      px      :     1.008783
      py      :     1.074177
      dz2     :     0.037816  d :     0.254504
      dxz     :     0.052163
      dyz     :     0.042497
      dx2y2   :     0.048232
      dxy     :     0.073796
      f0      :     0.003163  f :     0.024165
      f+1     :     0.003032
      f-1     :     0.001725
      f+2     :     0.004452
      f-2     :     0.002229
      f+3     :     0.005461
      f-3     :     0.004103

  3 C s       :     2.776138  s :     2.776138
      pz      :     0.797638  p :     2.649978
      px      :     0.892798
      py      :     0.959541
      dz2     :     0.093043  d :     0.909693
      dxz     :     0.152237
      dyz     :     0.129329
      dx2y2   :     0.275442
      dxy     :     0.259643
      f0      :     0.010625  f :     0.143032
      f+1     :     0.010923
      f-1     :     0.013844
      f+2     :     0.025703
      f-2     :     0.012855
      f+3     :     0.030687
      f-3     :     0.038395

  4 O s       :     3.330696  s :     3.330696
      pz      :     1.587491  p :     4.469519
      px      :     1.446037
      py      :     1.435991
      dz2     :     0.006956  d :     0.068464
      dxz     :     0.011365
      dyz     :     0.007307
      dx2y2   :     0.027314
      dxy     :     0.015521
      f0      :     0.000504  f :     0.004638
      f+1     :     0.000618
      f-1     :     0.000112
      f+2     :     0.000910
      f-2     :     0.000221
      f+3     :     0.000928
      f-3     :     0.001346

  5 O s       :     3.412334  s :     3.412334
      pz      :     1.372806  p :     4.440958
      px      :     1.600550
      py      :     1.467602
      dz2     :     0.007426  d :     0.063410
      dxz     :     0.005038
      dyz     :     0.016750
      dx2y2   :     0.017516
      dxy     :     0.016680
      f0      :     0.000498  f :     0.005750
      f+1     :     0.000189
      f-1     :     0.000761
      f+2     :     0.000887
      f-2     :     0.000954
      f+3     :     0.001273
      f-3     :     0.001190

  6 C s       :     2.717227  s :     2.717227
      pz      :     0.955600  p :     2.847792
      px      :     0.862295
      py      :     1.029897
      dz2     :     0.131027  d :     0.503301
      dxz     :     0.065456
      dyz     :     0.150226
      dx2y2   :     0.076732
      dxy     :     0.079860
      f0      :     0.010568  f :     0.054093
      f+1     :     0.005678
      f-1     :     0.011325
      f+2     :     0.009496
      f-2     :     0.006294
      f+3     :     0.005639
      f-3     :     0.005093

  7 C s       :     2.763423  s :     2.763423
      pz      :     0.990341  p :     2.883962
      px      :     0.887180
      py      :     1.006441
      dz2     :     0.074493  d :     0.366699
      dxz     :     0.046085
      dyz     :     0.141420
      dx2y2   :     0.046183
      dxy     :     0.058518
      f0      :     0.008055  f :     0.039720
      f+1     :     0.005337
      f-1     :     0.007787
      f+2     :     0.006267
      f-2     :     0.002867
      f+3     :     0.005207
      f-3     :     0.004200

  8 C s       :     2.711484  s :     2.711484
      pz      :     1.022181  p :     2.863805
      px      :     0.873792
      py      :     0.967832
      dz2     :     0.137848  d :     0.489201
      dxz     :     0.077160
      dyz     :     0.140643
      dx2y2   :     0.082098
      dxy     :     0.051452
      f0      :     0.010445  f :     0.054727
      f+1     :     0.005590
      f-1     :     0.012156
      f+2     :     0.009546
      f-2     :     0.007302
      f+3     :     0.004599
      f-3     :     0.005089

  9 C s       :     2.762992  s :     2.762992
      pz      :     0.984721  p :     2.905615
      px      :     0.879416
      py      :     1.041478
      dz2     :     0.094351  d :     0.382657
      dxz     :     0.026181
      dyz     :     0.121379
      dx2y2   :     0.068208
      dxy     :     0.072538
      f0      :     0.006626  f :     0.042968
      f+1     :     0.002993
      f-1     :     0.009254
      f+2     :     0.008319
      f-2     :     0.005356
      f+3     :     0.005523
      f-3     :     0.004898

 10 C s       :     2.771692  s :     2.771692
      pz      :     1.013886  p :     2.936860
      px      :     0.890095
      py      :     1.032880
      dz2     :     0.076604  d :     0.378089
      dxz     :     0.045024
      dyz     :     0.153367
      dx2y2   :     0.047234
      dxy     :     0.055861
      f0      :     0.008775  f :     0.041886
      f+1     :     0.005534
      f-1     :     0.008513
      f+2     :     0.006876
      f-2     :     0.002530
      f+3     :     0.005301
      f-3     :     0.004357

 11 C s       :     2.765956  s :     2.765956
      pz      :     1.035107  p :     2.909787
      px      :     0.885387
      py      :     0.989294
      dz2     :     0.123249  d :     0.377565
      dxz     :     0.071691
      dyz     :     0.102353
      dx2y2   :     0.057755
      dxy     :     0.022516
      f0      :     0.008635  f :     0.041355
      f+1     :     0.005589
      f-1     :     0.009236
      f+2     :     0.006742
      f-2     :     0.006239
      f+3     :     0.001768
      f-3     :     0.003148

 12 C s       :     2.744981  s :     2.744981
[...]
      f0      :     0.008906  f :     0.042023
      f+1     :     0.005384
      f-1     :     0.008680
      f+2     :     0.006970
      f-2     :     0.002396
      f+3     :     0.005243
      f-3     :     0.004443

 11 C s       :     2.765950  s :     2.765950
      pz      :     1.034524  p :     2.902222
      px      :     0.873414
      py      :     0.994284
      dz2     :     0.122304  d :     0.375455
      dxz     :     0.069056
      dyz     :     0.106400
      dx2y2   :     0.056782
      dxy     :     0.020914
      f0      :     0.008860  f :     0.041415
      f+1     :     0.004988
      f-1     :     0.009685
      f+2     :     0.006662
      f-2     :     0.006509
      f+3     :     0.001472
      f-3     :     0.003239

 12 C s       :     2.749262  s :     2.749262
      pz      :     0.947356  p :     2.662815
      px      :     0.732709
      py      :     0.982750
      dz2     :     0.201164  d :     0.732781
      dxz     :     0.118555
      dyz     :     0.254324
      dx2y2   :     0.078219
      dxy     :     0.080520
      f0      :     0.024962  f :     0.103343
      f+1     :     0.016606
      f-1     :     0.026636
      f+2     :     0.014677
      f-2     :     0.010056
      f+3     :     0.005535
      f-3     :     0.004870

 13 O s       :     3.408206  s :     3.408206
      pz      :     1.480032  p :     4.425159
      px      :     1.306729
      py      :     1.638397
      dz2     :     0.024673  d :     0.065762
      dxz     :     0.014280
      dyz     :     0.021281
      dx2y2   :     0.002978
      dxy     :     0.002549
      f0      :     0.001739  f :     0.005642
      f+1     :     0.001165
      f-1     :     0.001642
      f+2     :     0.000535
      f-2     :     0.000487
      f+3     :     0.000037
      f-3     :     0.000038

 14 C s       :     2.715082  s :     2.715082
      pz      :     0.946328  p :     2.868744
      px      :     0.939126
      py      :     0.983290
      dz2     :     0.088163  d :     0.484607
      dxz     :     0.068460
      dyz     :     0.133164
      dx2y2   :     0.098708
      dxy     :     0.096113
      f0      :     0.008708  f :     0.053658
      f+1     :     0.006174
      f-1     :     0.006750
      f+2     :     0.007563
      f-2     :     0.009642
      f+3     :     0.006140
      f-3     :     0.008680

 15 C s       :     2.767700  s :     2.767700
      pz      :     0.968844  p :     2.908079
      px      :     0.943203
      py      :     0.996032
      dz2     :     0.098907  d :     0.377682
      dxz     :     0.064356
      dyz     :     0.070105
      dx2y2   :     0.067629
      dxy     :     0.076684
      f0      :     0.004707  f :     0.041436
      f+1     :     0.005662
      f-1     :     0.007143
      f+2     :     0.006734
      f-2     :     0.007838
      f+3     :     0.004728
      f-3     :     0.004623

 16 C s       :     2.773708  s :     2.773708
      pz      :     0.956682  p :     2.944164
      px      :     0.937848
      py      :     1.049634
      dz2     :     0.051860  d :     0.376904
      dxz     :     0.058778
      dyz     :     0.093348
      dx2y2   :     0.094104
      dxy     :     0.078814
      f0      :     0.005265  f :     0.041778
      f+1     :     0.003109
      f-1     :     0.006609
      f+2     :     0.005755
      f-2     :     0.007197
      f+3     :     0.005133
      f-3     :     0.008709

 17 C s       :     2.776452  s :     2.776452
      pz      :     0.959714  p :     2.927231
      px      :     0.952529
      py      :     1.014988
      dz2     :     0.054865  d :     0.379746
      dxz     :     0.049411
      dyz     :     0.111523
      dx2y2   :     0.080421
      dxy     :     0.083527
      f0      :     0.006566  f :     0.041693
      f+1     :     0.005443
      f-1     :     0.003794
      f+2     :     0.005559
      f-2     :     0.007163
      f+3     :     0.005457
      f-3     :     0.007711

 18 C s       :     2.773584  s :     2.773584
      pz      :     0.996903  p :     2.943140
      px      :     0.954276
      py      :     0.991961
      dz2     :     0.095939  d :     0.377012
      dxz     :     0.067038
      dyz     :     0.072541
      dx2y2   :     0.065838
      dxy     :     0.075656
      f0      :     0.004769  f :     0.041814
      f+1     :     0.005897
      f-1     :     0.006991
      f+2     :     0.006841
      f-2     :     0.008146
      f+3     :     0.004519
      f-3     :     0.004650

 19 C s       :     2.767519  s :     2.767519
      pz      :     0.957870  p :     2.905540
      px      :     0.925244
      py      :     1.022426
      dz2     :     0.057061  d :     0.376885
      dxz     :     0.059299
      dyz     :     0.091659
      dx2y2   :     0.090749
      dxy     :     0.078116
      f0      :     0.005473  f :     0.041649
      f+1     :     0.003286
      f-1     :     0.006723
      f+2     :     0.005833
      f-2     :     0.006926
      f+3     :     0.004987
      f-3     :     0.008422

 20 H s       :     0.805942  s :     0.805942
      pz      :     0.032929  p :     0.061432
      px      :     0.013697
      py      :     0.014807

 21 H s       :     0.804562  s :     0.804562
      pz      :     0.016449  p :     0.061285
      px      :     0.022739
      py      :     0.022097

 22 H s       :     0.806278  s :     0.806278
      pz      :     0.020602  p :     0.061663
      px      :     0.012481
      py      :     0.028580

 23 H s       :     0.636038  s :     0.636038
      pz      :     0.041034  p :     0.146129
      px      :     0.027850
      py      :     0.077245

 24 H s       :     0.771210  s :     0.771210
      pz      :     0.023990  p :     0.060746
      px      :     0.014251
      py      :     0.022505

 25 H s       :     0.781161  s :     0.781161
      pz      :     0.032555  p :     0.060142
      px      :     0.013838
      py      :     0.013749

 26 H s       :     0.783481  s :     0.783481
      pz      :     0.023366  p :     0.058994
      px      :     0.013777
      py      :     0.021852

 27 H s       :     0.777812  s :     0.777812
      pz      :     0.011820  p :     0.059440
      px      :     0.012547
      py      :     0.035072

 28 H s       :     0.776710  s :     0.776710
      pz      :     0.011696  p :     0.060507
      px      :     0.016608
      py      :     0.032203

 29 H s       :     0.784888  s :     0.784888
      pz      :     0.023849  p :     0.059099
      px      :     0.023551
      py      :     0.011699

 30 H s       :     0.785249  s :     0.785249
      pz      :     0.021695  p :     0.058953
      px      :     0.013317
      py      :     0.023941

 31 H s       :     0.785222  s :     0.785222
      pz      :     0.011646  p :     0.059007
      px      :     0.016286
      py      :     0.031074

 32 H s       :     0.781944  s :     0.781944
      pz      :     0.025582  p :     0.060081
      px      :     0.023076
      py      :     0.011424



                      *****************************
                      * MAYER POPULATION ANALYSIS *
                      *****************************

  NA   - Mulliken gross atomic population
  ZA   - Total nuclear charge
  QA   - Mulliken gross atomic charge
  VA   - Mayer's total valence
  BVA  - Mayer's bonded valence
  FA   - Mayer's free valence

  ATOM       NA         ZA         QA         VA         BVA        FA
  0 H      0.8593     1.0000     0.1407     0.9684     0.9684    -0.0000
  1 C      6.0415     6.0000    -0.0415     3.6928     3.6928    -0.0000
  2 C      6.4145     6.0000    -0.4145     3.9488     3.9488     0.0000
  3 C      5.7769     6.0000     0.2231     4.4342     4.4342    -0.0000
  4 O      8.3225     8.0000    -0.3225     2.1547     2.1547     0.0000
  5 O      8.3288     8.0000    -0.3288     2.1955     2.1955    -0.0000
  6 C      5.8647     6.0000     0.1353     3.7049     3.7049     0.0000
  7 C      6.3501     6.0000    -0.3501     3.9663     3.9663    -0.0000
  8 C      5.7644     6.0000     0.2356     3.4334     3.4334    -0.0000
  9 C      6.2095     6.0000    -0.2095     3.9463     3.9463    -0.0000
 10 C      6.1281     6.0000    -0.1281     3.8784     3.8784    -0.0000
 11 C      6.1917     6.0000    -0.1917     3.8825     3.8825    -0.0000
 12 C      5.8468     6.0000     0.1532     4.0436     4.0436    -0.0000
 13 O      8.3429     8.0000    -0.3429     2.1602     2.1602     0.0000
 14 C      5.8177     6.0000     0.1823     3.4756     3.4756    -0.0000
 15 C      6.2322     6.0000    -0.2322     3.9458     3.9458     0.0000
 16 C      6.1324     6.0000    -0.1324     3.8862     3.8862     0.0000
 17 C      6.1176     6.0000    -0.1176     3.8971     3.8971     0.0000
 18 C      6.1289     6.0000    -0.1289     3.8901     3.8901     0.0000
 19 C      6.2070     6.0000    -0.2070     3.9538     3.9538     0.0000
 20 H      0.8604     1.0000     0.1396     0.9713     0.9713     0.0000
 21 H      0.8615     1.0000     0.1385     0.9711     0.9711     0.0000
 22 H      0.8640     1.0000     0.1360     0.9786     0.9786     0.0000
 23 H      0.6361     1.0000     0.3639     0.8868     0.8868     0.0000
 24 H      0.8455     1.0000     0.1545     0.9692     0.9692    -0.0000
 25 H      0.8654     1.0000     0.1346     0.9898     0.9898    -0.0000
 26 H      0.8566     1.0000     0.1434     0.9622     0.9622    -0.0000
 27 H      0.8581     1.0000     0.1419     0.9749     0.9749    -0.0000
 28 H      0.8379     1.0000     0.1621     0.9574     0.9574     0.0000
 29 H      0.8572     1.0000     0.1428     0.9613     0.9613     0.0000
 30 H      0.8551     1.0000     0.1449     0.9598     0.9598    -0.0000
 31 H      0.8575     1.0000     0.1425     0.9618     0.9618     0.0000
 32 H      0.8670     1.0000     0.1330     0.9910     0.9910     0.0000

  Mayer bond orders larger than 0.100000
B(  0-H ,  1-C ) :   0.9099 B(  1-C ,  2-C ) :   0.9791 B(  1-C ,  3-C ) :   0.9688 
B(  1-C ,  6-C ) :   0.9056 B(  2-C , 20-H ) :   0.9599 B(  2-C , 21-H ) :   0.9592 
B(  2-C , 22-H ) :   0.9607 B(  3-C ,  4-O ) :   1.2558 B(  3-C ,  5-O ) :   2.1002 
B(  4-O , 23-H ) :   0.8393 B(  6-C ,  7-C ) :   1.3377 B(  6-C , 11-C ) :   1.3115 
B(  7-C ,  8-C ) :   1.3088 B(  7-C , 24-H ) :   0.9704 B(  8-C ,  9-C ) :   1.2937 
B(  8-C , 12-C ) :   0.9440 B(  9-C , 10-C ) :   1.3987 B(  9-C , 25-H ) :   0.9708 
B( 10-C , 11-C ) :   1.3770 B( 10-C , 26-H ) :   0.9718 B( 11-C , 27-H ) :   0.9665 
B( 12-C , 13-O ) :   2.0272 B( 12-C , 14-C ) :   0.9694 B( 14-C , 15-C ) :   1.3047 
B( 14-C , 19-C ) :   1.2984 B( 15-C , 16-C ) :   1.4036 B( 15-C , 28-H ) :   0.9606 
B( 16-C , 17-C ) :   1.3839 B( 16-C , 29-H ) :   0.9673 B( 17-C , 18-C ) :   1.3676 
B( 17-C , 30-H ) :   0.9619 B( 18-C , 19-C ) :   1.4261 B( 18-C , 31-H ) :   0.9681 
B( 19-C , 32-H ) :   0.9702 

-------
TIMINGS
-------

Total SCF time: 0 days 0 hours 0 min 36 sec 

Total time                  ....      36.604 sec
Sum of individual times     ....      36.524 sec  ( 99.8%)

SCF preparation             ....       0.347 sec  (  0.9%)
Fock matrix formation       ....      35.468 sec  ( 96.9%)
  Startup                   ....       0.020 sec  (  0.1% of F)
  Split-RI-J                ....       9.249 sec  ( 26.1% of F)
  XC integration            ....      12.770 sec  ( 36.0% of F)
    Basis function eval.    ....       3.521 sec  ( 27.6% of XC)
    Density eval.           ....       3.935 sec  ( 30.8% of XC)
    XC-Functional eval.     ....       0.173 sec  (  1.4% of XC)
    XC-Potential eval.      ....       4.816 sec  ( 37.7% of XC)
  CPCM terms                ....      13.354 sec  ( 37.7% of F)
Diagonalization             ....       0.000 sec  (  0.0%)
Density matrix formation    ....       0.049 sec  (  0.1%)
Total Energy calculation    ....       0.025 sec  (  0.1%)
Population analysis         ....       0.092 sec  (  0.3%)
Orbital Transformation      ....       0.082 sec  (  0.2%)
Orbital Orthonormalization  ....       0.000 sec  (  0.0%)
DIIS solution               ....       0.092 sec  (  0.3%)
SOSCF solution              ....       0.369 sec  (  1.0%)
Finished LeanSCF after  36.7 sec

Maximum memory used throughout the entire LEANSCF-calculation: 141.6 MB

-------------------------   --------------------
FINAL SINGLE POINT ENERGY      -843.138452563410
-------------------------   --------------------

                                *** OPTIMIZATION RUN DONE ***


------------------------------------------------------------------------------
                              ORCA PROPERTY CALCULATIONS
------------------------------------------------------------------------------

GBWName                                 ... Dexketoprofen\Dexketoprofen_PBE_def2-TZVP\Dexketoprofen_PBE_def2-TZVP.orcainp.gbw
Number of atoms                         ...     33
Number of basis functions               ...    673
Max core memory                         ...   1024 MB

Electric properties:
Dipole moment                           ... YES
Quadrupole moment                       ...  NO
Static polarizability (Dipole/Dipole)   ...  NO
Static polarizability (Dipole/Quad.)    ...  NO
Static polarizability (Quad./Quad.)     ...  NO
Static polarizability (Velocity)        ...  NO

Atomic electric properties:
Dipole moment                           ...  NO
Quadrupole moment                       ...  NO
Static polarizability                   ...  NO

Choice of electric origin               ... Center of mass
Position of electric origin             ...     5.491463    -4.412735    -3.083421

General magnetic properties:
Magnetizability                         ...  NO

EPR properties:
g-Tensor (aka g-matrix)                 ...  NO
Zero-Field splitting spin-orbit         ...  NO
Zero-field splitting spin-spin          ...  NO
Hyperfine couplings                     ...  NO (   0 nuclei)
Quadrupole couplings                    ...  NO (   0 nuclei)
Contact density                         ...  NO (   0 nuclei)

NMR properties:
Chemical shifts                         ...  NO (   0 nuclei)
Spin-rotation constants                 ...  NO (   0 nuclei)
Spin-spin couplings                     ...  NO (   0 nuclei,    0 pairs)

Choice of magnetic origin               ... GIAO
Position of magnetic origin             ...     0.000000     0.000000     0.000000

Properties with geometric perturbations:
SCF Hessian                             ...  NO
IR spectrum                             ...  NO
VCD spectrum                            ...  NO
X-ray spectroscopy properties:
SCF XES/XAS/RIXS spectra                ...  NO


-------------
DIPOLE MOMENT
-------------

Method             : SCF
Type of density    : Electron Density
Multiplicity       :   1
Irrep              :   0
Energy             :  -843.1384525634096008 Eh
Relativity type    : 
Basis              : AO
                                X                 Y                 Z
Electronic contribution:      4.006869076      -1.264312326      -3.361950019
Nuclear contribution   :     -3.948348338      -0.284734484       4.318054025
                        -----------------------------------------
Total Dipole Moment    :      0.058520738      -1.549046810       0.956104006
                        -----------------------------------------
Magnitude (a.u.)       :      1.821292279
Magnitude (Debye)      :      4.629357073



--------------------
Rotational spectrum 
--------------------
 
Rotational constants in cm-1:             0.020905             0.007098             0.005916 
Rotational constants in MHz :           626.723734           212.790354           177.368359 

Dipole components along the rotational axes: 
x,y,z [a.u.] :    -1.242521     1.283251     0.355688 
x,y,z [Debye]:    -3.158237     3.261765     0.904086 

 

Dipole moment calculation done in   0.0 sec 

Maximum memory used throughout the entire PROP-calculation: 80.4 MB

--------------------------------
SUGGESTED CITATIONS FOR THIS RUN
--------------------------------

Below you find a list of papers that are relevant to this ORCA run
We neither can nor want to force you to cite these papers, but we appreciate if you do
You receive ORCA, which is the product of decades of hard work by many enthusiastic individuals, for free
The only thing we kindly ask in return is that you cite our papers,
We deeply appreciate it, if you show your appreciation for ORCA by not just citing the generic ORCA reference.

Please note that relegating all ORCA citations to the supporting information does *not* help us.
SI sections are not indexed - citations you put there will not count into any citation statistics
But we need these citations in order to attract the funding resources that allow us to do what we are doing

Therefore, if you are a happy ORCA user, please consider citing a few of the papers listed below in the main body of your paper

In addition to the list printed below, the program has created the file Dexketoprofen\Dexketoprofen_PBE_def2-TZVP\Dexketoprofen_PBE_def2-TZVP.orcainp.bibtex that contains the list in bibtex format
You can import this file easily into all common literature databanks and citation aid programs


List of essential papers. We consider these as the minimum necessary citations

  1. Neese,F.
     Software update: the ORCA program system, version 5.0
     WIRES Comput. Molec. Sci., 2022 12(1)e1606
     doi.org/10.1002/wcms.1606

List of papers to cite with high priority. The work reported in these papers was absolutely
necessary for this run to complete.
Our perspective: the developers of density functionals and basis sets usually get cited in chemistry papers
Good! But without the algorithms to do something with them, the functionals or basis sets would not do anything.
Hence, in our opinion, the algorithm design and method developments papers are equally worthy of getting cited

  1. Neese,F.
     An improvement of the resolution of the identity approximation for the formation of the Coulomb matrix
     J. Comp. Chem., 2003 24(14)1740-1747
     doi.org/10.1002/jcc.10318
  2. Garcia-Rates,M.; Neese,F.
     Effect of the Solute Cavity on the Solvation Energy and its Derivatives within the Framework of the Gaussian Charge Scheme
     J. Comput. Chem., 2020 41 922-939
     doi.org/10.1002/jcc.26139
  3. Neese,F.
     The SHARK Integral Generation and Digestion System
     J. Comp. Chem., 2022  1-16
     doi.org/10.1002/jcc.26942

List of suggested additional citations. These are papers that are important in the 'surrounding' of 
of this run, or papers that preceded the highly important papers. If you like your results we are grateful for a citation.

  1. Neese,F.
     The ORCA program system
     WIRES Comput. Molec. Sci., 2012 2(1)73-78
     doi.org/10.1002/wcms.81
  2. Neese,F.
     Software update: the ORCA program system, version 4.0
     WIRES Comput. Molec. Sci., 2018 8(1)1-6
     doi.org/10.1002/wcms.1327
  3. Neese,F.; Wennmohs,F.; Becker,U.; Riplinger,C.
     The ORCA quantum chemistry program package
     J. Chem. Phys., 2020 152 Art. No. L224108
     doi.org/10.1063/5.0004608

List of optional additional citations

  1. Neese,F.
     Approximate second-order SCF convergence for spin unrestricted wavefunctions
     Chem. Phys. Lett., 2000 325(1-3)93-98
     doi.org/10.1016/s0009-2614(00)00662-x

Timings for individual modules:

Sum of individual times          ...     1679.521 sec (=  27.992 min)
Startup calculation              ...       30.051 sec (=   0.501 min)   1.8 %
SCF iterations                   ...     1147.789 sec (=  19.130 min)  68.3 %
Property calculations            ...        0.141 sec (=   0.002 min)   0.0 %
SCF Gradient evaluation          ...      501.343 sec (=   8.356 min)  29.9 %
Geometry relaxation              ...        0.197 sec (=   0.003 min)   0.0 %
                             ****ORCA TERMINATED NORMALLY****
TOTAL RUN TIME: 0 days 0 hours 28 minutes 1 seconds 609 msec
