
                                 *****************
                                 * O   R   C   A *
                                 *****************

                                            #,                                       
                                            ###                                      
                                            ####                                     
                                            #####                                    
                                            ######                                   
                                           ########,                                 
                                     ,,################,,,,,                         
                               ,,#################################,,                 
                          ,,##########################################,,             
                       ,#########################################, ''#####,          
                    ,#############################################,,   '####,        
                  ,##################################################,,,,####,       
                ,###########''''           ''''###############################       
              ,#####''   ,,,,##########,,,,          '''####'''          '####       
            ,##' ,,,,###########################,,,                        '##       
           ' ,,###''''                  '''############,,,                           
         ,,##''                                '''############,,,,        ,,,,,,###''
      ,#''                                            '''#######################'''  
     '                                                          ''''####''''         
             ,#######,   #######,   ,#######,      ##                                
            ,#'     '#,  ##    ##  ,#'     '#,    #''#        ,####,   ,####,        
            ##       ##  ##   ,#'  ##            #'  '#       #'       #'  '#        
            ##       ##  #######   ##           ,######,      #####,   #    #        
            '#,     ,#'  ##    ##  '#,     ,#' ,#      #,     #,   #   #,  ,#        
             '#######'   ##     ##  '#######'  #'      '#     '####' # '####'        



                #########################################################
                #                        -***-                          #
                #          Department of theory and spectroscopy        #
                #                                                       #
                #                      Frank Neese                      #
                #                                                       #
                #     Directorship, Architecture, Infrastructure        #
                #                    SHARK, DRIVERS                     #
                #        Core code/Algorithms in most modules           #
                #                                                       #
                #        Max Planck Institute fuer Kohlenforschung      #
                #                Kaiser Wilhelm Platz 1                 #
                #                 D-45470 Muelheim/Ruhr                 #
                #                      Germany                          #
                #                                                       #
                #                  All rights reserved                  #
                #                        -***-                          #
                #########################################################


                         Program Version 6.0.0  -   RELEASE   -


 With contributions from (in alphabetic order):
   Daniel Aravena         : Magnetic Suceptibility
   Michael Atanasov       : Ab Initio Ligand Field Theory (pilot matlab implementation)
   Alexander A. Auer      : GIAO ZORA, VPT2 properties, NMR spectrum
   Ute Becker             : All parallelization in ORCA, NUMFREQ, NUMCALC
   Giovanni Bistoni       : ED, misc. LED, open-shell LED, HFLD
   Martin Brehm           : Molecular dynamics
   Dmytro Bykov           : pre 5.0 version of the SCF Hessian
   Marcos Casanova-Páez   : Triplet and SCS-CIS(D). UHF-(DLPNO)-IP/EA/STEOM-CCSD. UHF-CVS-IP/STEOM-CCSD
   Vijay G. Chilkuri      : MRCI spin determinant printing, contributions to CSF-ICE
   Pauline Colinet        : FMM embedding
   Dipayan Datta          : RHF DLPNO-CCSD density
   Achintya Kumar Dutta   : EOM-CC, STEOM-CC
   Nicolas Foglia         : Exact transition moments, OPA infrastructure, MCD improvements
   Dmitry Ganyushin       : Spin-Orbit,Spin-Spin,Magnetic field MRCI
   Miquel Garcia          : C-PCM and meta-GGA Hessian, CCSD/C-PCM, Gaussian charge scheme
   Tiago L. C. Gouveia    : GS-ROHF, GS-ROCIS
   Yang Guo               : DLPNO-NEVPT2, F12-NEVPT2, CIM, IAO-localization
   Andreas Hansen         : Spin unrestricted coupled pair/coupled cluster methods
   Ingolf Harden          : AUTO-CI MPn and infrastructure 
   Benjamin Helmich-Paris : MC-RPA, TRAH-(SCF,CASSCF), AVAS, COSX integrals, SCF dyn. polar.
   Lee Huntington         : MR-EOM, pCC
   Robert Izsak           : Overlap fitted RIJCOSX, COSX-SCS-MP3, EOM
   Riya Kayal             : Wick's Theorem for AUTO-CI, AUTO-CI UHF-CCSDT
   Emily Kempfer          : AUTO-CI, RHF CISDT and CCSDT
   Christian Kollmar      : KDIIS, OOCD, Brueckner-CCSD(T), CCSD density, CASPT2, CASPT2-K, improved NEVPT2
   Axel Koslowski         : Symmetry handling
   Simone Kossmann        : Meta GGA functionals, TD-DFT gradient, OOMP2, (MP2 Hessian; deprecated post 5.0)
   Lucas Lang             : DCDCAS
   Marvin Lechner         : AUTO-CI (C++ implementation), FIC-MRCC
   Spencer Leger          : CASSCF response
   Dagmar Lenk            : GEPOL surface, SMD, ORCA-2-JSON
   Dimitrios Liakos       : Extrapolation schemes; Compound Job, initial MDCI parallelization
   Dimitrios Manganas     : Further ROCIS development; embedding schemes. LFT, Crystal Embedding
   Dimitrios Pantazis     : SARC Basis sets
   Anastasios Papadopoulos: AUTO-CI, single reference methods and gradients
   Taras Petrenko         : pre 6.0 DFT Hessian and TD-DFT gradient, (ASA, deprecated), ECA, 1-Electron XAS/XES, NRVS
   Peter Pinski           : DLPNO-MP2, DLPNO-MP2 Gradient
   Christoph Reimann      : Effective Core Potentials
   Marius Retegan         : Local ZFS, SOC
   Christoph Riplinger    : Optimizer, TS searches, QM/MM, DLPNO-CCSD(T), (RO)-DLPNO pert. Triples
   Michael Roemelt        : Original ROCIS implementation
   Masaaki Saitow         : Open-shell DLPNO-CCSD energy and density
   Barbara Sandhoefer     : DKH picture change effects
   Kantharuban Sivalingam : CASSCF convergence/infrastructure, NEVPT2 and variants, FIC-MRCI
   Bernardo de Souza      : ESD, SOC TD-DFT
   Georgi Stoychev        : AutoAux, RI-MP2 NMR, DLPNO-MP2 response, X2C
   Van Anh Tran           : RI-MP2 g-tensors
   Willem Van den Heuvel  : Paramagnetic NMR
   Zikuan Wang            : NOTCH, Electric field optimization 
   Frank Wennmohs         : Technical directorship and infrastructure
   Hang Xu                : AUTO-CI-Response properties 


 We gratefully acknowledge several colleagues who have allowed us to
 interface, adapt or use parts of their codes:
   Stefan Grimme, W. Hujo, H. Kruse, P. Pracht,  : VdW corrections, initial TS optimization,
                  C. Bannwarth, S. Ehlert,         DFT functionals, gCP, sTDA/sTD-DF
                  L. Wittmann, M. Mueller
   Ed Valeev, F. Pavosevic, A. Kumar             : LibInt (2-el integral package), F12 methods
   Garnet Chan, S. Sharma, J. Yang, R. Olivares  : DMRG
   Ulf Ekstrom                                   : XCFun DFT Library
   Mihaly Kallay                                 : mrcc  (arbitrary order and MRCC methods)
   Frank Weinhold                                : gennbo (NPA and NBO analysis)
   Simon Mueller                                 : openCOSMO-RS
   Christopher J. Cramer and Donald G. Truhlar   : smd solvation model
   Lars Goerigk                                  : TD-DFT with DH, B97 family of functionals
   V. Asgeirsson, H. Jonsson                     : NEB implementation
   FAccTs GmbH                                   : IRC, NEB, NEB-TS, DLPNO-Multilevel, CI-OPT
                                                   MM, QMMM, 2- and 3-layer-ONIOM, Crystal-QMMM,
                                                   LR-CPCM, SF, NACMEs, symmetry and pop. for TD-DFT,
                                                   nearIR, NL-DFT gradient (VV10), updates on ESD,
                                                   ML-optimized integration grids, MBIS, APM,
                                                   GOAT, DOCKER, SOLVATOR, interface openCOSMO-RS
   S Lehtola, MJT Oliveira, MAL Marques          : LibXC Library
   Liviu Ungur et al                             : ANISO software


 Your calculation uses the libint2 library for the computation of 2-el integrals
 For citations please refer to: http://libint.valeyev.net

 Your ORCA version has been built with support for libXC version: 6.2.2
 For citations please refer to: https://libxc.gitlab.io

 This ORCA versions uses:
   CBLAS   interface :  Fast vector & matrix operations
   LAPACKE interface :  Fast linear algebra routines
   Shared memory     :  Shared parallel matrices


Warning: RI is on but no J-basis has been assigned. Assigning Def2/J (nothing to worry about!)
================================================================================

----- Orbital basis set information -----
Your calculation utilizes the basis: 6-311+G**
   H, Li - Ne  : R. Krishnan, J. S. Binkley, R. Seeger and J. A. Pople, J. Chem. Phys. 72, 650 (1980).
   Na - Ar     : A. D. McLean and G. S. Chandler J. Chem. Phys. 72, 5639, (1980).
   K  - Ca     : J.-P. Blaudeau, M. P. McGrath, L. A. Curtiss and L. Radom, J. Chem. Phys. 107, 5016 (1997).
   Ga - Kr     : L. A. Curtiss, M. P. McGrath, J.-P. Blandeau, N. E. Davis, R. C. Binning and L. Radom, J. Chem. Phys. 103, 6104 (1995).
   Pol./Diff.
   H, Li - Cl  : T. Clark, J. Chandrasekhar and P. v. R. Schleyer, J. Comp. Chem. 4, 294 (1983).
   H - Ne      : M. J. Frisch, J. A. Pople and J. S. Binkley, J. Chem. Phys. 80, 3265 (1984).

----- AuxJ basis set information -----
Your calculation utilizes the auxiliary basis: def2/J
   F. Weigend, Phys. Chem. Chem. Phys. 8, 1057 (2006).

================================================================================
                                        WARNINGS
                       Please study these warnings very carefully!
================================================================================


WARNING: Geometry Optimization
  ===> : Switching off AutoStart
         For restart on a previous wavefunction, please use MOREAD

================================================================================
                                       INPUT FILE
================================================================================
NAME = Ibuprofen\Ibuprofen_TPSS_6-311+G\Ibuprofen_TPSS_6-311+G.orcainp
|  1> # ORCA input file
|  2> # 
|  3> !TPSS 6-311+G** Opt CPCM(WATER)
|  4> * xyz 0 1
|  5>    C        2.95021        -0.38900         1.26274
|  6>    C        2.52045        -1.27848         0.09338
|  7>    C        0.99553        -1.40741         0.07675
|  8>    C        3.03305        -0.73504        -1.25720
|  9>    C        4.54216        -0.63179        -1.32375
| 10>    C        5.34421        -1.77303        -1.21037
| 11>    C        6.73846        -1.66838        -1.22843
| 12>    C        7.36134        -0.42186        -1.38715
| 13>    C        6.55228         0.71875        -1.50569
| 14>    C        5.15995         0.61450        -1.47446
| 15>    C        8.87998        -0.34092        -1.48484
| 16>    C        9.28189         0.24772        -2.84195
| 17>    C        9.61173         0.40524        -0.37163
| 18>    O        8.87745         0.76600         0.70549
| 19>    O       10.81195         0.64384        -0.41318
| 20>    H        2.59304        -0.80141         2.21203
| 21>    H        2.55000         0.62512         1.15790
| 22>    H        4.04024        -0.31777         1.33342
| 23>    H        2.93334        -2.27988         0.25826
| 24>    H        0.51345        -0.43617        -0.07745
| 25>    H        0.63424        -1.81602         1.02656
| 26>    H        0.66784        -2.08146        -0.72144
| 27>    H        2.58341         0.24756        -1.45114
| 28>    H        2.69896        -1.38702        -2.07513
| 29>    H        4.88886        -2.75489        -1.10326
| 30>    H        7.32748        -2.57887        -1.13792
| 31>    H        6.99599         1.70432        -1.63567
| 32>    H        4.56054         1.51848        -1.56984
| 33>    H        9.27510        -1.36482        -1.43749
| 34>    H        8.93076         1.27903        -2.95691
| 35>    H        8.86386        -0.34431        -3.66356
| 36>    H       10.37078         0.26519        -2.96132
| 37>    H        7.93807         0.51129         0.66734
| 38> *
| 39> 
| 40>                          ****END OF INPUT****
================================================================================

                       *****************************
                       * Geometry Optimization Run *
                       *****************************

Geometry optimization settings:
Update method            Update   .... BFGS
Choice of coordinates    CoordSys .... (2022) Redundant Internals
Initial Hessian          InHess   .... Almloef's Model
Max. no of cycles        MaxIter  .... 99

Convergence Tolerances:
Energy Change            TolE     ....  5.0000e-06 Eh
Max. Gradient            TolMAXG  ....  3.0000e-04 Eh/bohr
RMS Gradient             TolRMSG  ....  1.0000e-04 Eh/bohr
Max. Displacement        TolMAXD  ....  4.0000e-03 bohr
RMS Displacement         TolRMSD  ....  2.0000e-03 bohr
Strict Convergence                .... False

------------------------------------------------------------------------------
                        ORCA OPTIMIZATION COORDINATE SETUP
------------------------------------------------------------------------------

The optimization will be done in redundant internal coordinates (2022)
Making redundant internal coordinates   ...  (2022 redundants) done
Evaluating the initial hessian          ...  (Almloef) done
Evaluating the coordinates              ...  done
Calculating the B-matrix                .... done
Calculating the G-matrix                .... done
Diagonalizing the G-matrix              .... done
Small eigenvalue found = 1.019e-02
Small eigenvalue found = 1.799e-02
Small eigenvalue found = 2.497e-02
Small eigenvalue found = 2.537e-02
The first mode is                       ....   64
The number of degrees of freedom        ....   93

    -----------------------------------------------------------------
                    Redundant Internal Coordinates


    -----------------------------------------------------------------
         Definition                    Initial Value    Approx d2E/dq
    -----------------------------------------------------------------
      1. B(C   1,C   0)                  1.5308         0.372513   
      2. B(C   2,C   1)                  1.5305         0.372956   
      3. B(C   3,C   1)                  1.5434         0.355601   
      4. B(C   4,C   3)                  1.5141         0.396044   
      5. B(C   5,C   4)                  1.3995         0.603393   
      6. B(C   6,C   5)                  1.3983         0.606059   
      7. B(C   7,C   6)                  1.4025         0.596772   
      8. B(C   8,C   7)                  1.4034         0.594715   
      9. B(C   9,C   8)                  1.3966         0.609882   
     10. B(C   9,C   4)                  1.3991         0.604147   
     11. B(C  10,C   7)                  1.5239         0.381999   
     12. B(C  11,C  10)                  1.5329         0.369619   
     13. B(C  12,C  10)                  1.5269         0.377842   
     14. B(O  13,C  12)                  1.3526         0.642036   
     15. B(O  14,C  12)                  1.2244         1.028160   
     16. B(H  15,C   0)                  1.0949         0.353677   
     17. B(H  16,C   0)                  1.0953         0.353206   
     18. B(H  17,C   0)                  1.0946         0.354015   
     19. B(H  18,C   1)                  1.0957         0.352693   
     20. B(H  19,C   2)                  1.0952         0.353273   
     21. B(H  20,C   2)                  1.0953         0.353186   
     22. B(H  21,C   2)                  1.0949         0.353661   
     23. B(H  22,C   3)                  1.0979         0.349854   
     24. B(H  23,C   3)                  1.0980         0.349613   
     25. B(H  24,C   5)                  1.0876         0.363294   
     26. B(H  25,C   6)                  1.0882         0.362520   
     27. B(H  26,C   8)                  1.0886         0.361913   
     28. B(H  27,C   9)                  1.0888         0.361640   
     29. B(H  28,C  10)                  1.0985         0.349011   
     30. B(H  29,C  11)                  1.0955         0.352904   
     31. B(H  30,C  11)                  1.0956         0.352796   
     32. B(H  31,C  11)                  1.0956         0.352829   
     33. B(H  32,H  17)                  4.0403         0.000001   
     34. B(H  32,O  13)                  0.9740         0.493805   
     35. A(C   1,C   0,H  15)          110.6012         0.323211   
     36. A(H  15,C   0,H  17)          107.0596         0.289245   
     37. A(C   1,C   0,H  17)          111.5122         0.323262   
     38. A(H  16,C   0,H  17)          108.0467         0.289185   
     39. A(C   1,C   0,H  16)          111.2422         0.323141   
     40. A(H  15,C   0,H  16)          108.2131         0.289141   
     41. A(C   0,C   1,C   3)          111.7539         0.360132   
     42. A(C   2,C   1,H  18)          107.4648         0.323127   
     43. A(C   2,C   1,C   3)          110.5529         0.360205   
     44. A(C   3,C   1,H  18)          109.1678         0.320615   
     45. A(C   0,C   1,H  18)          108.0788         0.323064   
     46. A(C   0,C   1,C   2)          109.6932         0.363072   
     47. A(C   1,C   2,H  19)          111.4324         0.323214   
     48. A(H  20,C   2,H  21)          107.6854         0.289137   
     49. A(C   1,C   2,H  20)          110.5286         0.323201   
     50. A(H  19,C   2,H  21)          108.1533         0.289148   
     51. A(C   1,C   2,H  21)          110.9766         0.323272   
     52. A(H  19,C   2,H  20)          107.9229         0.289087   
     53. A(C   1,C   3,H  23)          109.9811         0.320156   
     54. A(C   4,C   3,H  22)          109.8411         0.325897   
     55. A(H  22,C   3,H  23)          105.9756         0.288188   
     56. A(C   1,C   3,C   4)          113.1722         0.363917   
     57. A(C   1,C   3,H  22)          109.4931         0.320192   
     58. A(C   4,C   3,H  23)          108.1198         0.325860   
     59. A(C   5,C   4,C   9)          118.8196         0.429947   
     60. A(C   3,C   4,C   5)          120.8000         0.398868   
     61. A(C   3,C   4,C   9)          120.3691         0.398956   
     62. A(C   4,C   5,C   6)          120.6219         0.430191   
     63. A(C   6,C   5,H  24)          119.0979         0.352079   
     64. A(C   4,C   5,H  24)          120.2799         0.351817   
     65. A(C   5,C   6,C   7)          120.7185         0.429340   
     66. A(C   7,C   6,H  25)          120.8421         0.351035   
     67. A(C   5,C   6,H  25)          118.4266         0.351952   
     68. A(C   8,C   7,C  10)          121.7292         0.395340   
     69. A(C   6,C   7,C  10)          119.8045         0.395580   
     70. A(C   6,C   7,C   8)          118.4162         0.427888   
     71. A(C   9,C   8,H  26)          118.4633         0.352227   
     72. A(C   7,C   8,C   9)          120.8090         0.429559   
     73. A(C   7,C   8,H  26)          120.7241         0.350731   
     74. A(C   4,C   9,C   8)          120.6042         0.430774   
     75. A(C   4,C   9,H  27)          120.3900         0.351620   
     76. A(C   8,C   9,H  27)          119.0058         0.352182   
     77. A(C   7,C  10,C  11)          109.7811         0.364076   
     78. A(C  12,C  10,H  28)          104.5771         0.323260   
     79. A(C  11,C  10,H  28)          107.5644         0.322096   
     80. A(C   7,C  10,H  28)          107.8285         0.323841   
     81. A(C  11,C  10,C  12)          109.3994         0.363396   
     82. A(C   7,C  10,C  12)          117.1803         0.365449   
     83. A(H  30,C  11,H  31)          107.8271         0.288980   
     84. A(H  29,C  11,H  31)          106.9853         0.288994   
     85. A(C  10,C  11,H  31)          111.2958         0.322671   
     86. A(H  29,C  11,H  30)          107.9222         0.288990   
     87. A(C  10,C  11,H  30)          110.8782         0.322666   
     88. A(C  10,C  11,H  29)          111.7386         0.322682   
     89. A(O  13,C  12,O  14)          120.4769         0.472599   
     90. A(C  10,C  12,O  14)          122.7010         0.432046   
     91. A(C  10,C  12,O  13)          116.7921         0.397365   
     92. A(C  12,O  13,H  32)          114.9996         0.369057   
     93. D(C   3,C   1,C   0,H  15)   -178.9388         0.011084   
     94. D(C   2,C   1,C   0,H  15)     58.0846         0.011084   
     95. D(C   3,C   1,C   0,H  17)    -59.9238         0.011084   
     96. D(C   3,C   1,C   0,H  16)     60.7720         0.011084   
     97. D(C   2,C   1,C   0,H  16)    -62.2046         0.011084   
     98. D(C   2,C   1,C   0,H  17)    177.0996         0.011084   
     99. D(H  19,C   2,C   1,C   3)    -61.3764         0.011109   
    100. D(H  19,C   2,C   1,C   0)     62.3068         0.011109   
    101. D(H  20,C   2,C   1,H  18)     59.5736         0.011109   
    102. D(H  20,C   2,C   1,C   3)    178.6232         0.011109   
    103. D(H  20,C   2,C   1,C   0)    -57.6936         0.011109   
    104. D(H  19,C   2,C   1,H  18)    179.5740         0.011109   
    105. D(C   4,C   3,C   1,H  18)    -59.8720         0.010163   
    106. D(C   4,C   3,C   1,C   0)     59.6290         0.010163   
    107. D(C   4,C   3,C   1,C   2)   -177.8845         0.010163   
    108. D(H  22,C   3,C   1,H  18)    177.2289         0.010163   
    109. D(H  22,C   3,C   1,C   2)     59.2164         0.010163   
    110. D(H  22,C   3,C   1,C   0)    -63.2701         0.010163   
    111. D(C   9,C   4,C   3,C   1)   -116.6358         0.011651   
    112. D(C   5,C   4,C   3,H  23)    -59.9559         0.011651   
    113. D(C   5,C   4,C   3,H  22)   -175.1661         0.011651   
    114. D(C   9,C   4,C   3,H  22)      6.0704         0.011651   
    115. D(C   5,C   4,C   3,C   1)     62.1277         0.011651   
    116. D(H  24,C   5,C   4,C   9)   -179.3297         0.025114   
    117. D(C   6,C   5,C   4,C   9)      0.8878         0.025114   
    118. D(H  24,C   5,C   4,C   3)      1.8880         0.025114   
    119. D(C   6,C   5,C   4,C   3)   -177.8945         0.025114   
    120. D(H  25,C   6,C   5,H  24)      0.2275         0.025349   
    121. D(H  25,C   6,C   5,C   4)   -179.9874         0.025349   
    122. D(C   7,C   6,C   5,C   4)     -1.2790         0.025349   
    123. D(C   7,C   6,C   5,H  24)    178.9360         0.025349   
    124. D(C  10,C   7,C   6,H  25)      2.2118         0.024537   
    125. D(C  10,C   7,C   6,C   5)   -176.4653         0.024537   
    126. D(C   8,C   7,C   6,H  25)    179.6825         0.024537   
    127. D(C   8,C   7,C   6,C   5)      1.0054         0.024537   
    128. D(H  26,C   8,C   7,C  10)     -2.2503         0.024359   
    129. D(H  26,C   8,C   7,C   6)   -179.6698         0.024359   
    130. D(C   9,C   8,C   7,C  10)    177.0407         0.024359   
    131. D(C   9,C   8,C   7,C   6)     -0.3789         0.024359   
    132. D(H  27,C   9,C   8,C   7)   -179.9491         0.025688   
    133. D(C   4,C   9,C   8,H  26)    179.3207         0.025688   
    134. D(C   4,C   9,C   8,C   7)      0.0140         0.025688   
    135. D(H  27,C   9,C   4,C   5)    179.7015         0.025181   
    136. D(H  27,C   9,C   4,C   3)     -1.5108         0.025181   
    137. D(C   8,C   9,C   4,C   5)     -0.2612         0.025181   
    138. D(H  27,C   9,C   8,H  26)     -0.6425         0.025688   
    139. D(C   8,C   9,C   4,C   3)    178.5266         0.025181   
    140. D(H  28,C  10,C   7,C   6)      1.6017         0.010882   
    141. D(C  12,C  10,C   7,C   8)     66.6788         0.010882   
    142. D(C  12,C  10,C   7,C   6)   -115.9367         0.010882   
    143. D(C  11,C  10,C   7,C   8)    -58.8756         0.010882   
    144. D(C  11,C  10,C   7,C   6)    118.5089         0.010882   
    145. D(H  30,C  11,C  10,H  28)     60.2768         0.010923   
    146. D(H  30,C  11,C  10,C  12)    173.3150         0.010923   
    147. D(H  30,C  11,C  10,C   7)    -56.7959         0.010923   
    148. D(H  29,C  11,C  10,H  28)   -179.2822         0.010923   
    149. D(H  29,C  11,C  10,C  12)    -66.2440         0.010923   
    150. D(H  29,C  11,C  10,C   7)     63.6451         0.010923   
    151. D(O  14,C  12,C  10,C  11)    -46.9991         0.010661   
    152. D(O  14,C  12,C  10,C   7)   -172.7429         0.010661   
    153. D(O  13,C  12,C  10,H  28)   -110.0435         0.010661   
    154. D(O  13,C  12,C  10,C  11)    134.9856         0.010661   
    155. D(O  13,C  12,C  10,C   7)      9.2418         0.010661   
    156. D(H  32,O  13,C  12,O  14)   -178.0530         0.030404   
    157. D(H  32,O  13,C  12,C  10)      0.0092         0.030404   
    -----------------------------------------------------------------

Number of atoms                         .... 33
Number of degrees of freedom            .... 157


         *************************************************************
         *                GEOMETRY OPTIMIZATION CYCLE   1            *
         *************************************************************
---------------------------------
CARTESIAN COORDINATES (ANGSTROEM)
---------------------------------
  C      2.950210   -0.389000    1.262740
  C      2.520450   -1.278480    0.093380
  C      0.995530   -1.407410    0.076750
  C      3.033050   -0.735040   -1.257200
  C      4.542160   -0.631790   -1.323750
  C      5.344210   -1.773030   -1.210370
  C      6.738460   -1.668380   -1.228430
  C      7.361340   -0.421860   -1.387150
  C      6.552280    0.718750   -1.505690
  C      5.159950    0.614500   -1.474460
  C      8.879980   -0.340920   -1.484840
  C      9.281890    0.247720   -2.841950
  C      9.611730    0.405240   -0.371630
  O      8.877450    0.766000    0.705490
  O     10.811950    0.643840   -0.413180
  H      2.593040   -0.801410    2.212030
  H      2.550000    0.625120    1.157900
  H      4.040240   -0.317770    1.333420
  H      2.933340   -2.279880    0.258260
  H      0.513450   -0.436170   -0.077450
  H      0.634240   -1.816020    1.026560
  H      0.667840   -2.081460   -0.721440
  H      2.583410    0.247560   -1.451140
  H      2.698960   -1.387020   -2.075130
  H      4.888860   -2.754890   -1.103260
  H      7.327480   -2.578870   -1.137920
  H      6.995990    1.704320   -1.635670
  H      4.560540    1.518480   -1.569840
  H      9.275100   -1.364820   -1.437490
  H      8.930760    1.279030   -2.956910
  H      8.863860   -0.344310   -3.663560
  H     10.370780    0.265190   -2.961320
  H      7.938070    0.511290    0.667340

----------------------------
CARTESIAN COORDINATES (A.U.)
----------------------------
  NO LB      ZA    FRAG     MASS         X           Y           Z
   0 C     6.0000    0    12.011    5.575089   -0.735103    2.386233
   1 C     6.0000    0    12.011    4.762960   -2.415977    0.176463
   2 C     6.0000    0    12.011    1.881279   -2.659619    0.145036
   3 C     6.0000    0    12.011    5.731634   -1.389024   -2.375764
   4 C     6.0000    0    12.011    8.583438   -1.193910   -2.501525
   5 C     6.0000    0    12.011   10.099093   -3.350541   -2.287268
   6 C     6.0000    0    12.011   12.733844   -3.152781   -2.321396
   7 C     6.0000    0    12.011   13.910917   -0.797200   -2.621334
   8 C     6.0000    0    12.011   12.382015    1.358241   -2.845342
   9 C     6.0000    0    12.011    9.750892    1.161237   -2.786326
  10 C     6.0000    0    12.011   16.780730   -0.644245   -2.805941
  11 C     6.0000    0    12.011   17.540230    0.468123   -5.370507
  12 C     6.0000    0    12.011   18.163537    0.765793   -0.702279
  13 O     8.0000    0    15.999   16.775949    1.447530    1.333183
  14 O     8.0000    0    15.999   20.431624    1.216681   -0.780797
  15 H     1.0000    0     1.008    4.900135   -1.514445    4.180131
  16 H     1.0000    0     1.008    4.818802    1.181306    2.188114
  17 H     1.0000    0     1.008    7.634947   -0.600498    2.519799
  18 H     1.0000    0     1.008    5.543209   -4.308349    0.488041
  19 H     1.0000    0     1.008    0.970280   -0.824242   -0.146359
  20 H     1.0000    0     1.008    1.198540   -3.431780    1.939917
  21 H     1.0000    0     1.008    1.262035   -3.933389   -1.363324
  22 H     1.0000    0     1.008    4.881937    0.467821   -2.742257
  23 H     1.0000    0     1.008    5.100295   -2.621088   -3.921427
  24 H     1.0000    0     1.008    9.238607   -5.205988   -2.084859
  25 H     1.0000    0     1.008   13.846930   -4.873358   -2.150357
  26 H     1.0000    0     1.008   13.220505    3.220698   -3.090968
  27 H     1.0000    0     1.008    8.618172    2.869511   -2.966568
  28 H     1.0000    0     1.008   17.527399   -2.579136   -2.716462
  29 H     1.0000    0     1.008   16.876691    2.417016   -5.587750
  30 H     1.0000    0     1.008   16.750268   -0.650652   -6.923125
  31 H     1.0000    0     1.008   19.597934    0.501136   -5.596084
  32 H     1.0000    0     1.008   15.000778    0.966198    1.261090

--------------------------------
INTERNAL COORDINATES (ANGSTROEM)
--------------------------------
 C      0   0   0     0.000000000000     0.00000000     0.00000000
 C      1   0   0     1.530774685445     0.00000000     0.00000000
 C      2   1   0     1.530451079976   109.69319757     0.00000000
 C      2   1   3     1.543422213783   111.75390370   122.97659260
 C      4   2   1     1.514101204378   113.17224034    59.62897433
 C      5   4   2     1.399488465297   120.80003733    62.12774448
 C      6   5   4     1.398288542684   120.62185491   182.10546629
 C      7   6   5     1.402491940512   120.71853495   358.72101334
 C      8   7   6     1.403431860583   118.41616767     1.00540452
 C      9   8   7     1.396576601658   120.80897981   359.62112357
 C      8   7   6     1.523929811146   119.80454381   183.53472139
 C     11   8   7     1.532897990670   109.78111772   118.50890178
 C     11   8   7     1.526908416442   117.18028431   244.06325010
 O     13  11   8     1.352590991542   116.79212193     9.24179940
 O     13  11   8     1.224411863263   122.70096910   187.25713881
 H      1   2   3     1.094899046077   110.60116628    58.08460252
 H      1   2   3     1.095261997926   111.24215826   297.79538611
 H      1   2   3     1.094639107743   111.51224075   177.09963316
 H      2   1   3     1.095657577211   108.07878105   243.11782334
 H      3   2   1     1.095210438226   111.43237591    62.30681607
 H      3   2   1     1.095276966023   110.52860221   302.30640348
 H      3   2   1     1.094911601318   110.97655958   182.90158328
 H      4   2   1     1.097857738143   109.49312922   296.72986935
 H      4   2   1     1.098045323928   109.98113291   180.66617580
 H      6   5   4     1.087596080445   120.27986322     1.88797466
 H      7   6   5     1.088176759814   118.42658827   180.01256479
 H      9   8   7     1.088632899282   120.72408072   180.33017648
 H     10   9   8     1.088838616554   119.00576528   180.05085388
 H     11   8   7     1.098514017617   107.82851498     1.60169337
 H     12  11   8     1.095494589033   111.73864193    63.64514186
 H     12  11   8     1.095578200723   110.87819736   303.20408023
 H     12  11   8     1.095552750852   111.29575597   183.18075441
 H     14  13  11     0.974046914168   114.99964197     0.00000000

---------------------------
INTERNAL COORDINATES (A.U.)
---------------------------
 C      0   0   0     0.000000000000     0.00000000     0.00000000
 C      1   0   0     2.892744928231     0.00000000     0.00000000
 C      2   1   0     2.892133402519   109.69319757     0.00000000
 C      2   1   3     2.916645293061   111.75390370   122.97659260
 C      4   2   1     2.861236615315   113.17224034    59.62897433
 C      5   4   2     2.644649926994   120.80003733    62.12774448
 C      6   5   4     2.642382401872   120.62185491   182.10546629
 C      7   6   5     2.650325672599   120.71853495   358.72101334
 C      8   7   6     2.652101864122   118.41616767     1.00540452
 C      9   8   7     2.639147302177   120.80897981   359.62112357
 C      8   7   6     2.879809990385   119.80454381   183.53472139
 C     11   8   7     2.896757393604   109.78111772   118.50890178
 C     11   8   7     2.885438738654   117.18028431   244.06325010
 O     13  11   8     2.556026545223   116.79212193     9.24179940
 O     13  11   8     2.313803096692   122.70096910   187.25713881
 H      1   2   3     2.069059341377   110.60116628    58.08460252
 H      1   2   3     2.069745220971   111.24215826   297.79538611
 H      1   2   3     2.068568129114   111.51224075   177.09963316
 H      2   1   3     2.070492757485   108.07878105   243.11782334
 H      3   2   1     2.069647787260   111.43237591    62.30681607
 H      3   2   1     2.069773506575   110.52860221   302.30640348
 H      3   2   1     2.069083067344   110.97655958   182.90158328
 H      4   2   1     2.074650459096   109.49312922   296.72986935
 H      4   2   1     2.075004944857   109.98113291   180.66617580
 H      6   5   4     2.055258736368   120.27986322     1.88797466
 H      7   6   5     2.056356061347   118.42658827   180.01256479
 H      9   8   7     2.057218040020   120.72408072   180.33017648
 H     10   9   8     2.057606789325   119.00576528   180.05085388
 H     11   8   7     2.075890647569   107.82851498     1.60169337
 H     12  11   8     2.070184754464   111.73864193    63.64514186
 H     12  11   8     2.070342757661   110.87819736   303.20408023
 H     12  11   8     2.070294664375   111.29575597   183.18075441
 H     14  13  11     1.840681909368   114.99964197     0.00000000

---------------------
BASIS SET INFORMATION
---------------------
There are 3 groups of distinct atoms

 Group   1 Type C   : 12s6p1d contracted to 5s4p1d pattern {63111/3111/1}
 Group   2 Type O   : 12s6p1d contracted to 5s4p1d pattern {63111/3111/1}
 Group   3 Type H   : 5s1p contracted to 3s1p pattern {311/1}

Atom   0C    basis set group =>   1
Atom   1C    basis set group =>   1
Atom   2C    basis set group =>   1
Atom   3C    basis set group =>   1
Atom   4C    basis set group =>   1
Atom   5C    basis set group =>   1
Atom   6C    basis set group =>   1
Atom   7C    basis set group =>   1
Atom   8C    basis set group =>   1
Atom   9C    basis set group =>   1
Atom  10C    basis set group =>   1
Atom  11C    basis set group =>   1
Atom  12C    basis set group =>   1
Atom  13O    basis set group =>   2
Atom  14O    basis set group =>   2
Atom  15H    basis set group =>   3
Atom  16H    basis set group =>   3
Atom  17H    basis set group =>   3
Atom  18H    basis set group =>   3
Atom  19H    basis set group =>   3
Atom  20H    basis set group =>   3
Atom  21H    basis set group =>   3
Atom  22H    basis set group =>   3
Atom  23H    basis set group =>   3
Atom  24H    basis set group =>   3
Atom  25H    basis set group =>   3
Atom  26H    basis set group =>   3
Atom  27H    basis set group =>   3
Atom  28H    basis set group =>   3
Atom  29H    basis set group =>   3
Atom  30H    basis set group =>   3
Atom  31H    basis set group =>   3
Atom  32H    basis set group =>   3
---------------------------------
AUXILIARY/J BASIS SET INFORMATION
---------------------------------
There are 3 groups of distinct atoms

 Group   1 Type C   : 12s5p4d2f1g contracted to 6s4p3d1f1g pattern {711111/2111/211/2/1}
 Group   2 Type O   : 12s5p4d2f1g contracted to 6s4p3d1f1g pattern {711111/2111/211/2/1}
 Group   3 Type H   : 5s2p1d contracted to 3s1p1d pattern {311/2/1}

Atom   0C    basis set group =>   1
Atom   1C    basis set group =>   1
Atom   2C    basis set group =>   1
Atom   3C    basis set group =>   1
Atom   4C    basis set group =>   1
Atom   5C    basis set group =>   1
Atom   6C    basis set group =>   1
Atom   7C    basis set group =>   1
Atom   8C    basis set group =>   1
Atom   9C    basis set group =>   1
Atom  10C    basis set group =>   1
Atom  11C    basis set group =>   1
Atom  12C    basis set group =>   1
Atom  13O    basis set group =>   2
Atom  14O    basis set group =>   2
Atom  15H    basis set group =>   3
Atom  16H    basis set group =>   3
Atom  17H    basis set group =>   3
Atom  18H    basis set group =>   3
Atom  19H    basis set group =>   3
Atom  20H    basis set group =>   3
Atom  21H    basis set group =>   3
Atom  22H    basis set group =>   3
Atom  23H    basis set group =>   3
Atom  24H    basis set group =>   3
Atom  25H    basis set group =>   3
Atom  26H    basis set group =>   3
Atom  27H    basis set group =>   3
Atom  28H    basis set group =>   3
Atom  29H    basis set group =>   3
Atom  30H    basis set group =>   3
Atom  31H    basis set group =>   3
Atom  32H    basis set group =>   3
------------------------------------------------------------------------------
                             ORCA STARTUP CALCULATIONS
                           -- RI-GTO INTEGRALS CHOSEN --
------------------------------------------------------------------------------
------------------------------------------------------------------------------
                   ___                                                        
                  /   \      - P O W E R E D   B Y -                         
                 /     \                                                     
                 |  |  |   _    _      __       _____    __    __             
                 |  |  |  | |  | |    /  \     |  _  \  |  |  /  |          
                  \  \/   | |  | |   /    \    | | | |  |  | /  /          
                 / \  \   | |__| |  /  /\  \   | |_| |  |  |/  /          
                |  |  |   |  __  | /  /__\  \  |    /   |      \           
                |  |  |   | |  | | |   __   |  |    \   |  |\   \          
                \     /   | |  | | |  |  |  |  | |\  \  |  | \   \       
                 \___/    |_|  |_| |__|  |__|  |_| \__\ |__|  \__/        
                                                                              
                      - O R C A' S   B I G   F R I E N D -                    
                                      &                                       
                       - I N T E G R A L  F E E D E R -                       
                                                                              
 v1 FN, 2020, v2 2021, v3 2022-2024                                           
------------------------------------------------------------------------------


----------------------
SHARK INTEGRAL PACKAGE
----------------------

Number of atoms                             ...     33
Number of basis functions                   ...    438
Number of shells                            ...    222
Maximum angular momentum                    ...      2
Integral batch strategy                     ... SHARK/LIBINT Hybrid
RI-J (if used) integral strategy            ... SPLIT-RIJ (Revised 2003 algorithm where possible)
Printlevel                                  ...      1
Contraction scheme used                     ... SEGMENTED contraction
Prescreening option                         ... SCHWARTZ
   Thresh                                   ... 2.500e-11
   Tcut                                     ... 2.500e-12
   Tpresel                                  ... 2.500e-12 
Coulomb Range Separation                    ... NOT USED
Exchange Range Separation                   ... NOT USED
Multipole approximations                    ... NOT USED
Finite Nucleus Model                        ... NOT USED
CABS basis                                  ... NOT available
Auxiliary Coulomb fitting basis             ... AVAILABLE
   # of basis functions in Aux-J            ...    933
   # of shells in Aux-J                     ...    315
   Maximum angular momentum in Aux-J        ...      4
Auxiliary J/K fitting basis                 ... NOT available
Auxiliary Correlation fitting basis         ... NOT available
Auxiliary 'external' fitting basis          ... NOT available

Checking pre-screening integrals            ... done (  0.0 sec) Dimension = 222
Check shell pair data                       ... done (  0.0 sec)
Shell pair information
Shell pair cut-off parameter TPreSel        ...   2.5e-12
Total number of shell pairs                 ...     24753
Shell pairs after pre-screening             ...     19677
Total number of primitive shell pairs       ...     77790
Primitive shell pairs kept                  ...     42763
          la=0 lb=0:   6555 shell pairs
          la=1 lb=0:   8093 shell pairs
          la=1 lb=1:   2556 shell pairs
          la=2 lb=0:   1467 shell pairs
          la=2 lb=1:    915 shell pairs
          la=2 lb=2:     91 shell pairs

Calculating one electron integrals          ... done (  0.0 sec)
Calculating RI/J V-Matrix + Cholesky decomp.... done (  0.0 sec)
Calculating Nuclear repulsion               ... done (  0.0 sec) ENN=    969.196472731820 Eh

Diagonalization of the overlap matrix:
Smallest eigenvalue                        ... 8.130e-07
Time for diagonalization                   ...    0.011 sec
Threshold for overlap eigenvalues          ... 1.000e-07
Number of eigenvalues below threshold      ... 0

IMPORTANT:
Smallest eigenvalue of S below the DiffSThresh (1.000e-06) while
Thresh>1e-12 and/or TCut>1e-13! In order to avoid SCF convergence issues,
Thresh will be set to at least 1e-12 and TCut to at least 1e-13.
This can be turned off by adding %SCF DiffSThresh -1 END to the input.

Time for construction of square roots      ...    0.008 sec
Total time needed                          ...    0.019 sec

-------------------
DFT GRID GENERATION
-------------------

General Integration Accuracy     IntAcc      ... 4.388
Radial Grid Type                 RadialGrid  ... OptM3 with GC (2021)
Angular Grid (max. ang.)         AngularGrid ... 4 (Lebedev-302)
Angular grid pruning method      GridPruning ... 4 (adaptive)
Weight generation scheme         WeightScheme... mBecke (2022)
Basis function cutoff            BFCut       ... 1.0000e-11
Integration weight cutoff        WCut        ... 1.0000e-14
Partially contracted basis set               ... off
Rotationally invariant grid construction     ... off
Angular grids for H and He will be reduced by one unit
Diffuse basis detected: some atoms will have their outermost
                        angular grid increased by 1.

Total number of grid points                  ...   150464
Total number of batches                      ...     2367
Average number of points per batch           ...       63
Average number of grid points per atom       ...     4560
Initializing property integral containers    ... done (  0.0 sec)

SHARK setup successfully completed in   1.2 seconds

Maximum memory used throughout the entire STARTUP-calculation: 76.4 MB
-------------------------------------------------------------------------------
                                 ORCA GUESS
                   Start orbitals & Density for SCF / CASSCF
-------------------------------------------------------------------------------

------------
SCF SETTINGS
------------
Hamiltonian:
 Density Functional     Method          .... DFT(GTOs)
 Exchange Functional    Exchange        .... TPSS
 Correlation Functional Correlation     .... TPSS
 LDA part of GGA corr.  LDAOpt          .... PW91-LDA
 Gradients option       PostSCFGGA      .... off
   NL short-range parameter             ....  5.000000
 RI-approximation to the Coulomb term is turned on
   Number of AuxJ basis functions       .... 933


General Settings:
 Integral files         IntName         .... Ibuprofen\Ibuprofen_TPSS_6-311+G\Ibuprofen_TPSS_6-311+G.orcainp
 Hartree-Fock type      HFTyp           .... RHF
 Total Charge           Charge          ....    0
 Multiplicity           Mult            ....    1
 Number of Electrons    NEL             ....  112
 Basis Dimension        Dim             ....  438
 Nuclear Repulsion      ENuc            ....    969.1964727318 Eh

Convergence Acceleration:
 AO-DIIS                CNVDIIS         .... on
   Start iteration      DIISMaxIt       ....    12
   Startup error        DIISStart       ....  0.200000
   # of expansion vecs  DIISMaxEq       ....     5
   Bias factor          DIISBfac        ....   1.050
   Max. coefficient     DIISMaxC        ....  10.000
 MO-DIIS                CNVKDIIS        .... off
 Trust-Rad. Augm. Hess. CNVTRAH         .... auto
   Auto Start mean grad. ratio tolernc. ....  1.125000
   Auto Start start iteration           ....    50
   Auto Start num. interpolation iter.  ....    10
   Max. Number of Micro iterations      ....    24
   Max. Number of Macro iterations      .... Maxiter - #DIIS iter
   Number of Davidson start vectors     ....     2
   Converg. threshold    (grad. norm)   ....   1.000e-05
   Grad. Scal. Fac. for Micro threshold ....   0.100
   Minimum threshold for Micro iter.    ....   1.000e-02
   NR start threshold (gradient norm)   ....   1.000e-04
   Initial trust radius                 ....   0.400
   Minimum AH scaling param. (alpha)    ....   1.000
   Maximum AH scaling param. (alpha)    .... 1000.000
   Quad. conv. algorithm                .... NR
   White noise on init. David. guess    .... on
   Maximum white noise                  ....   0.010
   Pseudo random numbers                .... off
   Inactive MOs                         .... canonical
   Orbital update algorithm             .... Taylor
   Preconditioner                       .... Diag
   Full preconditioner red. dimension   ....   250
 SOSCF                  CNVSOSCF        .... on
   Start iteration      SOSCFMaxIt      ....   150
   Startup grad/error   SOSCFStart      ....  0.003300
   Hessian update       SOSCFHessUp     .... L-BFGS
 Level Shifting         CNVShift        .... on
   Level shift para.    LevelShift      ....    0.2500
   Turn off err/grad.   ShiftErr        ....    0.0010
 Zerner damping         CNVZerner       .... off
 Static damping         CNVDamp         .... on
   Fraction old density DampFac         ....    0.7000
   Max. Damping (<1)    DampMax         ....    0.9800
   Min. Damping (>=0)   DampMin         ....    0.0000
   Turn off err/grad.   DampErr         ....    0.1000

SCF Procedure:
 Maximum # iterations   MaxIter         ....   125
 SCF integral mode      SCFMode         .... Direct
   Integral package                     .... SHARK and LIBINT hybrid scheme
 Reset frequency        DirectResetFreq ....    20
 Integral Threshold     Thresh          ....  1.000e-12 Eh
 Primitive CutOff       TCut            ....  1.000e-13 Eh

Convergence Tolerance:
 Convergence Check Mode ConvCheckMode   .... Total+1el-Energy
 Convergence forced     ConvForced      .... 0
 Energy Change          TolE            ....  1.000e-08 Eh
 1-El. energy change                    ....  1.000e-05 Eh
 Orbital Gradient       TolG            ....  1.000e-05
 Orbital Rotation angle TolX            ....  1.000e-05
 DIIS Error             TolErr          ....  5.000e-07

------------------------------
INITIAL GUESS: MODEL POTENTIAL
------------------------------
Loading Hartree-Fock densities                     ... done
Calculating cut-offs                               ... done
Initializing the effective Hamiltonian             ... done
Setting up the integral package (SHARK)            ... done
Starting the Coulomb interaction                   ... done (   0.5 sec)
Making the grid                                    ... done (   0.3 sec)
Mapping shells                                     ... done
Starting the XC term evaluation                    ... done (   0.7 sec)
  promolecular density results
     # of electrons  =    111.996236703
     EX              =    -88.096162991
     EC              =     -3.713885031
     EX+EC           =    -91.810048022
Transforming the Hamiltonian                       ... done (   0.0 sec)
Diagonalizing the Hamiltonian                      ... done (   0.0 sec)
Back transforming the eigenvectors                 ... done (   0.0 sec)
Now organizing SCF variables                       ... done
                      ------------------
                      INITIAL GUESS DONE (   1.5 sec)
                      ------------------
             **** ENERGY FILE WAS UPDATED (Ibuprofen\Ibuprofen_TPSS_6-311+G\Ibuprofen_TPSS_6-311+G.orcainp.en.tmp) ****
Finished Guess after   1.5 sec
Maximum memory used throughout the entire GUESS-calculation: 46.4 MB

-------------------------------------------------------------------------------------------
                                      ORCA LEAN-SCF
                              memory conserving SCF solver
-------------------------------------------------------------------------------------------

--------------------
CPCM SOLVATION MODEL
--------------------
CPCM parameters:
  Epsilon                                         ...      80.1510
  Refrac                                          ...       1.3328
  Rsolv                                           ...       1.3000
  Surface type                                    ... GAUSSIAN VDW
  Discretization scheme                           ... Constant charge density
    Threshold for H atoms                         ...       5.0000 (charges/Ang^2)
    Threshold for non-H atoms                     ...       5.0000 (charges/Ang^2)
  Epsilon function type                           ...         CPCM
Solvent:                                          ... WATER
Radii:
  Scheme                                          ... Element-dependent radii
  Radius for C  used is    3.8550 Bohr (=   2.0400 Ang.)
  Radius for O  used is    3.4469 Bohr (=   1.8240 Ang.)
  Radius for H  used is    2.4944 Bohr (=   1.3200 Ang.)
Calculating surface                               ...        done! (  0.0s)
Cavity surface points                             ...         2777
Cavity Volume                                     ...    1837.0921
Cavity Surface-area                               ...     985.9078
Calculating surface distance matrix               ...        done! (  0.0s)
Performing Cholesky decomposition & store         ...        done! (  0.1s)
Overall time for CPCM initialization              ...                 0.2s

----------------------------------------D-I-I-S--------------------------------------------
Iteration    Energy (Eh)           Delta-E    RMSDP     MaxDP     DIISErr   Damp  Time(sec)
-------------------------------------------------------------------------------------------
               ***  Starting incremental Fock matrix formation  ***
    1    -656.5778853353652948     0.00e+00  1.74e-02  2.76e+00  2.89e-01  0.700   7.9
    2    -656.7826740921551618    -2.05e-01  9.47e-03  1.00e+00  9.24e-02  0.700   6.9
                               ***Turning on AO-DIIS***
    3    -656.8538489046819677    -7.12e-02  4.32e-03  4.50e-01  2.75e-02  0.700   6.7
    4    -656.8975600593365698    -4.37e-02  8.15e-03  9.53e-01  1.26e-02  0.000   6.4
    5    -656.9951306060632987    -9.76e-02  2.15e-03  1.70e-01  6.83e-03  0.000   6.5
                              *** Initializing SOSCF ***
---------------------------------------S-O-S-C-F--------------------------------------
Iteration    Energy (Eh)           Delta-E    RMSDP     MaxDP     MaxGrad    Time(sec)
--------------------------------------------------------------------------------------
    6    -656.9960075937600550    -8.77e-04  7.44e-04  7.19e-02  2.69e-03     6.1
               *** Restarting incremental Fock matrix formation ***
    7    -656.9960676378879043    -6.00e-05  7.85e-04  7.95e-02  4.57e-04     7.6
    8    -656.9960451669236363     2.25e-05  2.70e-04  2.56e-02  1.27e-03     5.6
    9    -656.9960787344842856    -3.36e-05  2.05e-04  3.22e-02  1.93e-04     5.3
   10    -656.9960763945265398     2.34e-06  1.44e-04  2.60e-02  1.57e-04     5.4
   11    -656.9960802952151653    -3.90e-06  7.45e-05  7.58e-03  5.46e-05     5.2
   12    -656.9960799035919763     3.92e-07  3.02e-05  2.59e-03  9.47e-05     5.0
   13    -656.9960804579305886    -5.54e-07  3.53e-05  4.11e-03  1.16e-05     4.9
   14    -656.9960804486976258     9.23e-09  9.33e-06  7.50e-04  2.15e-05     4.5
                 **** Energy Check signals convergence ****

               *****************************************************
               *                     SUCCESS                       *
               *           SCF CONVERGED AFTER  14 CYCLES          *
               *****************************************************

             **** ENERGY FILE WAS UPDATED (Ibuprofen\Ibuprofen_TPSS_6-311+G\Ibuprofen_TPSS_6-311+G.orcainp.en.tmp) ****

----------------
TOTAL SCF ENERGY
----------------

Total Energy       :       -656.99608044869763 Eh          -17877.77224 eV

Components:
Nuclear Repulsion  :        969.19647273182011 Eh           26373.17681 eV
Electronic Energy  :      -1626.17292774133261 Eh          -44250.41501 eV
One Electron Energy:      -2812.61238342763454 Eh          -76535.07392 eV
Two Electron Energy:       1186.43945568630193 Eh           32284.65891 eV
CPCM Dielectric    :         -0.01962543918501 Eh              -0.53404 eV

Virial components:
Potential Energy   :      -1311.33078142208797 Eh          -35683.12466 eV
Kinetic Energy     :        654.33470097339045 Eh           17805.35242 eV
Virial Ratio       :          2.00406730603061

DFT components:
N(Alpha)           :       55.999995163453 electrons
N(Beta)            :       55.999995163453 electrons
N(Total)           :      111.999990326905 electrons
E(X)               :      -91.018460834422 Eh       
E(C)               :       -3.716434130856 Eh       
E(XC)              :      -94.734894965278 Eh       

CPCM Solvation Model Properties:
Surface-charge          :         -0.03479830753240
Corrected charge        :          0.00000000000000
Outlying charge corr.   :          0.00007061035200 Eh               0.00192 eV
Free-energy (cav+disp)  :  This term is not implemented in the current solvation scheme

---------------
SCF CONVERGENCE
---------------

  Last Energy change         ...   -9.2330e-09  Tolerance :   1.0000e-08
  Last MAX-Density change    ...    7.5033e-04  Tolerance :   1.0000e-07
  Last RMS-Density change    ...    9.3305e-06  Tolerance :   5.0000e-09
  Last DIIS Error            ...    2.6906e-03  Tolerance :   5.0000e-07
  Last Orbital Gradient      ...    2.1503e-05  Tolerance :   1.0000e-05
  Last Orbital Rotation      ...    3.5481e-05  Tolerance :   1.0000e-05


----------------
ORBITAL ENERGIES
----------------

  NO   OCC          E(Eh)            E(eV) 
   0   2.0000     -18.934122      -515.2237 
   1   2.0000     -18.880464      -513.7635 
   2   2.0000     -10.124928      -275.5133 
   3   2.0000     -10.015663      -272.5401 
   4   2.0000     -10.002901      -272.1928 
   5   2.0000      -9.995613      -271.9945 
   6   2.0000      -9.993203      -271.9289 
   7   2.0000      -9.992889      -271.9203 
   8   2.0000      -9.988916      -271.8122 
   9   2.0000      -9.988523      -271.8015 
  10   2.0000      -9.985345      -271.7151 
  11   2.0000      -9.982325      -271.6329 
  12   2.0000      -9.981586      -271.6128 
  13   2.0000      -9.967392      -271.2265 
  14   2.0000      -9.966527      -271.2030 
  15   2.0000      -1.038827       -28.2679 
  16   2.0000      -0.960492       -26.1363 
  17   2.0000      -0.808148       -21.9908 
  18   2.0000      -0.761778       -20.7290 
  19   2.0000      -0.737298       -20.0629 
  20   2.0000      -0.694647       -18.9023 
  21   2.0000      -0.688142       -18.7253 
  22   2.0000      -0.628048       -17.0900 
  23   2.0000      -0.625330       -17.0161 
  24   2.0000      -0.608211       -16.5503 
  25   2.0000      -0.573805       -15.6140 
  26   2.0000      -0.563902       -15.3445 
  27   2.0000      -0.539458       -14.6794 
  28   2.0000      -0.510144       -13.8817 
  29   2.0000      -0.484347       -13.1797 
  30   2.0000      -0.455600       -12.3975 
  31   2.0000      -0.433740       -11.8027 
  32   2.0000      -0.419825       -11.4240 
  33   2.0000      -0.415167       -11.2973 
  34   2.0000      -0.409865       -11.1530 
  35   2.0000      -0.405621       -11.0375 
  36   2.0000      -0.393181       -10.6990 
  37   2.0000      -0.388241       -10.5646 
  38   2.0000      -0.380520       -10.3545 
  39   2.0000      -0.370081       -10.0704 
  40   2.0000      -0.362667        -9.8687 
  41   2.0000      -0.349312        -9.5053 
  42   2.0000      -0.341701        -9.2981 
  43   2.0000      -0.333745        -9.0817 
  44   2.0000      -0.328371        -8.9354 
  45   2.0000      -0.326298        -8.8790 
  46   2.0000      -0.318465        -8.6659 
  47   2.0000      -0.305175        -8.3042 
  48   2.0000      -0.302989        -8.2448 
  49   2.0000      -0.292907        -7.9704 
  50   2.0000      -0.290161        -7.8957 
  51   2.0000      -0.286106        -7.7853 
  52   2.0000      -0.279117        -7.5952 
  53   2.0000      -0.252334        -6.8664 
  54   2.0000      -0.234594        -6.3836 
  55   2.0000      -0.218615        -5.9488 
  56   0.0000      -0.047437        -1.2908 
  57   0.0000      -0.043985        -1.1969 
  58   0.0000      -0.038347        -1.0435 
  59   0.0000      -0.007329        -0.1994 
  60   0.0000       0.007165         0.1950 
  61   0.0000       0.013524         0.3680 
  62   0.0000       0.016170         0.4400 
  63   0.0000       0.022711         0.6180 
  64   0.0000       0.028341         0.7712 
  65   0.0000       0.030058         0.8179 
  66   0.0000       0.032924         0.8959 
*Only the first 10 virtual orbitals were printed.

                    ********************************
                    * MULLIKEN POPULATION ANALYSIS *
                    ********************************

-----------------------
MULLIKEN ATOMIC CHARGES
-----------------------
   0 C :   -0.771288
   1 C :    0.751485
   2 C :   -0.871045
   3 C :   -1.336784
   4 C :    2.041877
   5 C :   -0.957313
   6 C :   -0.533334
   7 C :    1.205654
   8 C :   -0.891609
   9 C :   -0.626727
  10 C :   -0.024832
  11 C :   -0.651187
  12 C :   -0.046028
  13 O :   -0.224818
  14 O :   -0.332136
  15 H :    0.160296
  16 H :    0.170291
  17 H :    0.170809
  18 H :    0.158350
  19 H :    0.167257
  20 H :    0.160801
  21 H :    0.161804
  22 H :    0.178642
  23 H :    0.191684
  24 H :    0.156320
  25 H :    0.156256
  26 H :    0.172111
  27 H :    0.152686
  28 H :    0.216291
  29 H :    0.182934
  30 H :    0.181658
  31 H :    0.179401
  32 H :    0.350496
Sum of atomic charges:    0.0000000

--------------------------------
MULLIKEN REDUCED ORBITAL CHARGES
--------------------------------
  0 C s       :     3.602274  s :     3.602274
      pz      :     1.014753  p :     3.122674
      px      :     1.090470
      py      :     1.017450
      dz2     :     0.013325  d :     0.046340
      dxz     :     0.005555
      dyz     :     0.008468
      dx2y2   :     0.013323
      dxy     :     0.005669

  1 C s       :     2.548993  s :     2.548993
      pz      :     0.843327  p :     2.626966
      px      :     0.793581
      py      :     0.990058
      dz2     :     0.017595  d :     0.072556
      dxz     :     0.013393
      dyz     :     0.013114
      dx2y2   :     0.015802
      dxy     :     0.012654

  2 C s       :     3.698388  s :     3.698388
      pz      :     1.107490  p :     3.126229
      px      :     0.940009
      py      :     1.078731
      dz2     :     0.008605  d :     0.046428
      dxz     :     0.008658
      dyz     :     0.009143
      dx2y2   :     0.008903
      dxy     :     0.011119

  3 C s       :     4.367791  s :     4.367791
      pz      :     1.041861  p :     2.910440
      px      :     0.722085
      py      :     1.146494
      dz2     :     0.012197  d :     0.058554
      dxz     :     0.011110
      dyz     :     0.011900
      dx2y2   :     0.013228
      dxy     :     0.010117

  4 C s       :     1.796459  s :     1.796459
      pz      :     0.885325  p :     2.089223
      px      :     0.567715
      py      :     0.636183
      dz2     :     0.004005  d :     0.072441
      dxz     :     0.010027
      dyz     :     0.010575
      dx2y2   :     0.023822
      dxy     :     0.024013

  5 C s       :     3.805065  s :     3.805065
      pz      :     0.996357  p :     3.094550
      px      :     1.049878
      py      :     1.048315
      dz2     :     0.003467  d :     0.057697
      dxz     :     0.009318
      dyz     :     0.004898
      dx2y2   :     0.019306
      dxy     :     0.020709

  6 C s       :     3.472194  s :     3.472194
      pz      :     1.005420  p :     3.002856
      px      :     1.025092
      py      :     0.972343
      dz2     :     0.003523  d :     0.058284
      dxz     :     0.009014
      dyz     :     0.005892
      dx2y2   :     0.017437
      dxy     :     0.022418

  7 C s       :     2.355493  s :     2.355493
      pz      :     1.048263  p :     2.367760
      px      :     0.777563
      py      :     0.541935
      dz2     :     0.004195  d :     0.071094
      dxz     :     0.008668
      dyz     :     0.011150
      dx2y2   :     0.024373
      dxy     :     0.022708

  8 C s       :     3.709376  s :     3.709376
      pz      :     0.997597  p :     3.124031
      px      :     1.166549
      py      :     0.959885
      dz2     :     0.003518  d :     0.058202
      dxz     :     0.010117
      dyz     :     0.004978
      dx2y2   :     0.018813
      dxy     :     0.020776

  9 C s       :     3.610635  s :     3.610635
      pz      :     0.959341  p :     2.957841
      px      :     0.953558
      py      :     1.044942
      dz2     :     0.003560  d :     0.058251
      dxz     :     0.008545
      dyz     :     0.005705
      dx2y2   :     0.017905
      dxy     :     0.022536

 10 C s       :     3.127366  s :     3.127366
      pz      :     0.721300  p :     2.829051
      px      :     0.992240
      py      :     1.115511
      dz2     :     0.014151  d :     0.068416
      dxz     :     0.016370
      dyz     :     0.011611
      dx2y2   :     0.014360
      dxy     :     0.011924

 11 C s       :     3.524818  s :     3.524818
      pz      :     0.898626  p :     3.080066
      px      :     1.118625
      py      :     1.062815
      dz2     :     0.011921  d :     0.046303
      dxz     :     0.006714
      dyz     :     0.010036
      dx2y2   :     0.012949
      dxy     :     0.004683

 12 C s       :     3.370480  s :     3.370480
      pz      :     0.835291  p :     2.483743
      px      :     0.803674
      py      :     0.844778
      dz2     :     0.031167  d :     0.191805
      dxz     :     0.073079
      dyz     :     0.017185
      dx2y2   :     0.026768
      dxy     :     0.043605

 13 O s       :     3.702270  s :     3.702270
      pz      :     1.499731  p :     4.510549
      px      :     1.328638
      py      :     1.682179
      dz2     :     0.003711  d :     0.012000
      dxz     :     0.002306
      dyz     :     0.002199
      dx2y2   :     0.002090
      dxy     :     0.001694

 14 O s       :     3.874382  s :     3.874382
      pz      :     1.720588  p :     4.442784
      px      :     1.247903
      py      :     1.474293
      dz2     :     0.001908  d :     0.014970
      dxz     :     0.003321
      dyz     :     0.000181
      dx2y2   :     0.005263
      dxy     :     0.004297

 15 H s       :     0.817904  s :     0.817904
      pz      :     0.010140  p :     0.021800
      px      :     0.005830
      py      :     0.005830

 16 H s       :     0.808220  s :     0.808220
      pz      :     0.004754  p :     0.021489
      px      :     0.005902
      py      :     0.010833

 17 H s       :     0.807013  s :     0.807013
      pz      :     0.004978  p :     0.022178
      px      :     0.012076
      py      :     0.005123

 18 H s       :     0.820983  s :     0.820983
      pz      :     0.004486  p :     0.020667
      px      :     0.005542
      py      :     0.010640

 19 H s       :     0.811026  s :     0.811026
      pz      :     0.005269  p :     0.021717
      px      :     0.005982
      py      :     0.010465

 20 H s       :     0.817310  s :     0.817310
      pz      :     0.010267  p :     0.021889
      px      :     0.005558
      py      :     0.006064

 21 H s       :     0.816245  s :     0.816245
      pz      :     0.008822  p :     0.021951
      px      :     0.005435
      py      :     0.007694

 22 H s       :     0.800159  s :     0.800159
      pz      :     0.004716  p :     0.021199
      px      :     0.005781
      py      :     0.010702

 23 H s       :     0.786667  s :     0.786667
      pz      :     0.008780  p :     0.021649
      px      :     0.005399
      py      :     0.007470

 24 H s       :     0.819312  s :     0.819312
      pz      :     0.005910  p :     0.024369
      px      :     0.006174
      py      :     0.012285

 25 H s       :     0.819309  s :     0.819309
      pz      :     0.005841  p :     0.024436
      px      :     0.007311
      py      :     0.011283

 26 H s       :     0.803698  s :     0.803698
      pz      :     0.005772  p :     0.024190
      px      :     0.006099
      py      :     0.012319

 27 H s       :     0.822962  s :     0.822962
      pz      :     0.005861  p :     0.024352
      px      :     0.007405
      py      :     0.011086

 28 H s       :     0.761641  s :     0.761641
      pz      :     0.004587  p :     0.022069
      px      :     0.005451
      py      :     0.012031

 29 H s       :     0.795310  s :     0.795310
      pz      :     0.004603  p :     0.021756
      px      :     0.005830
      py      :     0.011323

 30 H s       :     0.796601  s :     0.796601
      pz      :     0.008827  p :     0.021741
      px      :     0.006043
      py      :     0.006871

 31 H s       :     0.798590  s :     0.798590
      pz      :     0.004696  p :     0.022009
      px      :     0.012215
      py      :     0.005098

 32 H s       :     0.587331  s :     0.587331
      pz      :     0.014877  p :     0.062173
      px      :     0.030131
      py      :     0.017165



                     *******************************
                     * LOEWDIN POPULATION ANALYSIS *
                     *******************************

----------------------
LOEWDIN ATOMIC CHARGES
----------------------
   0 C :   -0.117346
   1 C :   -0.166592
   2 C :   -0.121136
   3 C :   -0.104662
   4 C :   -0.113634
   5 C :   -0.061720
   6 C :   -0.050467
   7 C :   -0.138490
   8 C :   -0.065546
   9 C :   -0.063728
  10 C :   -0.113444
  11 C :   -0.076715
  12 C :    0.001076
  13 O :   -0.047458
  14 O :   -0.226364
  15 H :    0.059607
  16 H :    0.068871
  17 H :    0.066708
  18 H :    0.074756
  19 H :    0.063995
  20 H :    0.058614
  21 H :    0.058304
  22 H :    0.085612
  23 H :    0.085676
  24 H :    0.090369
  25 H :    0.089056
  26 H :    0.095840
  27 H :    0.088842
  28 H :    0.114101
  29 H :    0.074967
  30 H :    0.072387
  31 H :    0.068761
  32 H :    0.149760

-------------------------------
LOEWDIN REDUCED ORBITAL CHARGES
-------------------------------
  0 C s       :     2.798533  s :     2.798533
      pz      :     1.068109  p :     3.220195
      px      :     1.079236
      py      :     1.072851
      dz2     :     0.027931  d :     0.098618
      dxz     :     0.012173
      dyz     :     0.020109
      dx2y2   :     0.026668
      dxy     :     0.011736

  1 C s       :     2.802771  s :     2.802771
      pz      :     1.062983  p :     3.204831
      px      :     1.072986
      py      :     1.068863
      dz2     :     0.039579  d :     0.158990
      dxz     :     0.028557
      dyz     :     0.030673
      dx2y2   :     0.035161
      dxy     :     0.025019

  2 C s       :     2.805737  s :     2.805737
      pz      :     1.085158  p :     3.216447
      px      :     1.050950
      py      :     1.080339
      dz2     :     0.018327  d :     0.098951
      dxz     :     0.018200
      dyz     :     0.017786
      dx2y2   :     0.021746
      dxy     :     0.022892

  3 C s       :     2.786937  s :     2.786937
      pz      :     1.065649  p :     3.189466
      px      :     1.043532
      py      :     1.080286
      dz2     :     0.027860  d :     0.128259
      dxz     :     0.024073
      dyz     :     0.024558
      dx2y2   :     0.030231
      dxy     :     0.021537

  4 C s       :     2.791543  s :     2.791543
      pz      :     0.933653  p :     3.156936
      px      :     1.091380
      py      :     1.131903
      dz2     :     0.010940  d :     0.165156
      dxz     :     0.019337
      dyz     :     0.021214
      dx2y2   :     0.056962
      dxy     :     0.056703

  5 C s       :     2.788931  s :     2.788931
      pz      :     0.966694  p :     3.140456
      px      :     1.102739
      py      :     1.071023
      dz2     :     0.008478  d :     0.132333
      dxz     :     0.018487
      dyz     :     0.008801
      dx2y2   :     0.047554
      dxy     :     0.049013

  6 C s       :     2.790810  s :     2.790810
      pz      :     0.957557  p :     3.125938
      px      :     1.099073
      py      :     1.069308
      dz2     :     0.008533  d :     0.133718
      dxz     :     0.017854
      dyz     :     0.011521
      dx2y2   :     0.044026
      dxy     :     0.051783

  7 C s       :     2.789841  s :     2.789841
      pz      :     0.978767  p :     3.185422
      px      :     1.068567
      py      :     1.138088
      dz2     :     0.011209  d :     0.163227
      dxz     :     0.017281
      dyz     :     0.022224
      dx2y2   :     0.057967
      dxy     :     0.054546

  8 C s       :     2.787995  s :     2.787995
      pz      :     0.966205  p :     3.143937
      px      :     1.109082
      py      :     1.068650
      dz2     :     0.008548  d :     0.133615
      dxz     :     0.020209
      dyz     :     0.009328
      dx2y2   :     0.046205
      dxy     :     0.049325

  9 C s       :     2.791078  s :     2.791078
      pz      :     0.968048  p :     3.138984
      px      :     1.097899
      py      :     1.073037
      dz2     :     0.008599  d :     0.133665
      dxz     :     0.017108
      dyz     :     0.010766
      dx2y2   :     0.045215
      dxy     :     0.051977

 10 C s       :     2.781180  s :     2.781180
      pz      :     1.054576  p :     3.179062
      px      :     1.049489
      py      :     1.074996
      dz2     :     0.032649  d :     0.153203
      dxz     :     0.035619
      dyz     :     0.027143
      dx2y2   :     0.033116
      dxy     :     0.024677

 11 C s       :     2.793463  s :     2.793463
      pz      :     1.026738  p :     3.185317
      px      :     1.083873
      py      :     1.074705
      dz2     :     0.027064  d :     0.097935
      dxz     :     0.014832
      dyz     :     0.022117
      dx2y2   :     0.024954
      dxy     :     0.008967

 12 C s       :     2.780577  s :     2.780577
      pz      :     0.952285  p :     2.807007
      px      :     1.030707
      py      :     0.824015
      dz2     :     0.070740  d :     0.411341
      dxz     :     0.149925
      dyz     :     0.036776
      dx2y2   :     0.068576
      dxy     :     0.085324

 13 O s       :     3.390002  s :     3.390002
      pz      :     1.589914  p :     4.638829
      px      :     1.361503
      py      :     1.687411
      dz2     :     0.005551  d :     0.018628
      dxz     :     0.004402
      dyz     :     0.002975
      dx2y2   :     0.003290
      dxy     :     0.002411

 14 O s       :     3.515282  s :     3.515282
      pz      :     1.707793  p :     4.688469
      px      :     1.482834
      py      :     1.497843
      dz2     :     0.003505  d :     0.022613
      dxz     :     0.004151
      dyz     :     0.000211
      dx2y2   :     0.009323
      dxy     :     0.005424

 15 H s       :     0.872220  s :     0.872220
      pz      :     0.034352  p :     0.068173
      px      :     0.016574
      py      :     0.017247

 16 H s       :     0.862902  s :     0.862902
      pz      :     0.013633  p :     0.068227
      px      :     0.017113
      py      :     0.037482

 17 H s       :     0.863852  s :     0.863852
      pz      :     0.014145  p :     0.069439
      px      :     0.041563
      py      :     0.013732

 18 H s       :     0.854378  s :     0.854378
      pz      :     0.014886  p :     0.070866
      px      :     0.018518
      py      :     0.037462

 19 H s       :     0.867694  s :     0.867694
      pz      :     0.013987  p :     0.068312
      px      :     0.019076
      py      :     0.035249

 20 H s       :     0.873261  s :     0.873261
      pz      :     0.034098  p :     0.068125
      px      :     0.016878
      py      :     0.017149

 21 H s       :     0.873483  s :     0.873483
      pz      :     0.028097  p :     0.068213
      px      :     0.016377
      py      :     0.023739

 22 H s       :     0.846077  s :     0.846077
      pz      :     0.014571  p :     0.068311
      px      :     0.017222
      py      :     0.036518

 23 H s       :     0.844719  s :     0.844719
      pz      :     0.029859  p :     0.069605
      px      :     0.016205
      py      :     0.023541

 24 H s       :     0.838995  s :     0.838995
      pz      :     0.014792  p :     0.070636
      px      :     0.017805
      py      :     0.038039

 25 H s       :     0.840639  s :     0.840639
      pz      :     0.014467  p :     0.070305
      px      :     0.021402
      py      :     0.034436

 26 H s       :     0.833228  s :     0.833228
      pz      :     0.014777  p :     0.070932
      px      :     0.017593
      py      :     0.038562

 27 H s       :     0.841182  s :     0.841182
      pz      :     0.014575  p :     0.069976
      px      :     0.021590
      py      :     0.033811

 28 H s       :     0.815005  s :     0.815005
      pz      :     0.014499  p :     0.070893
      px      :     0.016420
      py      :     0.039974

 29 H s       :     0.856213  s :     0.856213
      pz      :     0.013288  p :     0.068819
      px      :     0.016527
      py      :     0.039004

 30 H s       :     0.859533  s :     0.859533
      pz      :     0.028985  p :     0.068079
      px      :     0.017641
      py      :     0.021453

 31 H s       :     0.862076  s :     0.862076
      pz      :     0.013200  p :     0.069163
      px      :     0.042401
      py      :     0.013562

 32 H s       :     0.664060  s :     0.664060
      pz      :     0.035302  p :     0.186181
      px      :     0.103959
      py      :     0.046920



                      *****************************
                      * MAYER POPULATION ANALYSIS *
                      *****************************

  NA   - Mulliken gross atomic population
  ZA   - Total nuclear charge
  QA   - Mulliken gross atomic charge
  VA   - Mayer's total valence
  BVA  - Mayer's bonded valence
  FA   - Mayer's free valence

  ATOM       NA         ZA         QA         VA         BVA        FA
  0 C      6.7713     6.0000    -0.7713     3.5682     3.5682    -0.0000
  1 C      5.2485     6.0000     0.7515     1.8977     1.8977    -0.0000
  2 C      6.8710     6.0000    -0.8710     3.5419     3.5419    -0.0000
  3 C      7.3368     6.0000    -1.3368     2.6098     2.6098     0.0000
  4 C      3.9581     6.0000     2.0419    -0.0046    -0.0046    -0.0000
  5 C      6.9573     6.0000    -0.9573     4.0828     4.0828     0.0000
  6 C      6.5333     6.0000    -0.5333     2.9083     2.9083     0.0000
  7 C      4.7943     6.0000     1.2057     1.8972     1.8972    -0.0000
  8 C      6.8916     6.0000    -0.8916     4.4386     4.4386     0.0000
  9 C      6.6267     6.0000    -0.6267     3.8824     3.8824    -0.0000
 10 C      6.0248     6.0000    -0.0248     2.9099     2.9099     0.0000
 11 C      6.6512     6.0000    -0.6512     3.4989     3.4989     0.0000
 12 C      6.0460     6.0000    -0.0460     4.0900     4.0900     0.0000
 13 O      8.2248     8.0000    -0.2248     2.1059     2.1059    -0.0000
 14 O      8.3321     8.0000    -0.3321     1.9309     1.9309    -0.0000
 15 H      0.8397     1.0000     0.1603     0.9419     0.9419     0.0000
 16 H      0.8297     1.0000     0.1703     0.9408     0.9408    -0.0000
 17 H      0.8292     1.0000     0.1708     0.9456     0.9456    -0.0000
 18 H      0.8417     1.0000     0.1583     0.9639     0.9639     0.0000
 19 H      0.8327     1.0000     0.1673     0.9407     0.9407    -0.0000
 20 H      0.8392     1.0000     0.1608     0.9378     0.9378    -0.0000
 21 H      0.8382     1.0000     0.1618     0.9359     0.9359    -0.0000
 22 H      0.8214     1.0000     0.1786     0.9376     0.9376     0.0000
 23 H      0.8083     1.0000     0.1917     0.9284     0.9284     0.0000
 24 H      0.8437     1.0000     0.1563     0.9619     0.9619     0.0000
 25 H      0.8437     1.0000     0.1563     0.9582     0.9582     0.0000
 26 H      0.8279     1.0000     0.1721     0.9543     0.9543     0.0000
 27 H      0.8473     1.0000     0.1527     0.9604     0.9604    -0.0000
 28 H      0.7837     1.0000     0.2163     0.9451     0.9451     0.0000
 29 H      0.8171     1.0000     0.1829     0.9407     0.9407     0.0000
 30 H      0.8183     1.0000     0.1817     0.9388     0.9388     0.0000
 31 H      0.8206     1.0000     0.1794     0.9382     0.9382     0.0000
 32 H      0.6495     1.0000     0.3505     0.9314     0.9314    -0.0000

  Mayer bond orders larger than 0.100000
B(  0-C ,  1-C ) :   0.5945 B(  0-C ,  2-C ) :  -0.1545 B(  0-C ,  5-C ) :   0.1447 
B(  0-C , 15-H ) :   1.0158 B(  0-C , 16-H ) :   1.0124 B(  0-C , 17-H ) :   0.9987 
B(  1-C ,  2-C ) :   0.4389 B(  1-C ,  3-C ) :   0.3114 B(  1-C ,  9-C ) :  -0.1109 
B(  1-C , 18-H ) :   0.9794 B(  1-C , 23-H ) :  -0.1026 B(  2-C ,  3-C ) :   0.4635 
B(  2-C ,  4-C ) :  -0.3855 B(  2-C , 19-H ) :   1.0362 B(  2-C , 20-H ) :   1.0079 
B(  2-C , 21-H ) :   1.0066 B(  3-C ,  4-C ) :  -1.1221 B(  3-C ,  5-C ) :   0.4835 
B(  3-C ,  6-C ) :   0.1167 B(  3-C ,  7-C ) :  -0.1420 B(  3-C ,  8-C ) :   0.1191 
B(  3-C ,  9-C ) :  -0.1094 B(  3-C , 17-H ) :  -0.1180 B(  3-C , 22-H ) :   1.2748 
B(  3-C , 23-H ) :   1.1798 B(  4-C ,  5-C ) :   0.6180 B(  4-C ,  7-C ) :   0.5499 
B(  4-C ,  8-C ) :  -0.2945 B(  4-C ,  9-C ) :   1.3598 B(  4-C , 10-C ) :  -0.1072 
B(  4-C , 18-H ) :  -0.1416 B(  4-C , 22-H ) :  -0.4514 B(  4-C , 23-H ) :  -0.1945 
B(  4-C , 24-H ) :  -0.1414 B(  5-C ,  6-C ) :   0.9592 B(  5-C ,  8-C ) :  -0.1099 
B(  5-C ,  9-C ) :   0.5860 B(  5-C , 24-H ) :   1.1158 B(  6-C ,  7-C ) :   1.3077 
B(  6-C ,  8-C ) :   0.3452 B(  6-C ,  9-C ) :  -0.2243 B(  6-C , 12-C ) :  -0.2408 
[...]
      dxz     :     0.018789
      dyz     :     0.020431
      dx2y2   :     0.055762
      dxy     :     0.056994

  5 C s       :     2.792114  s :     2.792114
      pz      :     0.965901  p :     3.138142
      px      :     1.101453
      py      :     1.070788
      dz2     :     0.008385  d :     0.131193
      dxz     :     0.018304
      dyz     :     0.008332
      dx2y2   :     0.047262
      dxy     :     0.048910

  6 C s       :     2.792687  s :     2.792687
      pz      :     0.961103  p :     3.130629
      px      :     1.098722
      py      :     1.070805
      dz2     :     0.008476  d :     0.133223
      dxz     :     0.017471
      dyz     :     0.011328
      dx2y2   :     0.043393
      dxy     :     0.052555

  7 C s       :     2.792083  s :     2.792083
      pz      :     0.980017  p :     3.183446
      px      :     1.064859
      py      :     1.138569
      dz2     :     0.010930  d :     0.162459
      dxz     :     0.016349
      dyz     :     0.021986
      dx2y2   :     0.057801
      dxy     :     0.055393

  8 C s       :     2.788473  s :     2.788473
      pz      :     0.961029  p :     3.135514
      px      :     1.105096
      py      :     1.069389
      dz2     :     0.008433  d :     0.132274
      dxz     :     0.019361
      dyz     :     0.009003
      dx2y2   :     0.045834
      dxy     :     0.049642

  9 C s       :     2.793592  s :     2.793592
      pz      :     0.967349  p :     3.137667
      px      :     1.096801
      py      :     1.073517
      dz2     :     0.008466  d :     0.131869
      dxz     :     0.016546
      dyz     :     0.010344
      dx2y2   :     0.044267
      dxy     :     0.052246

 10 C s       :     2.786090  s :     2.786090
      pz      :     1.052622  p :     3.177988
      px      :     1.050079
      py      :     1.075287
      dz2     :     0.034422  d :     0.151887
      dxz     :     0.034196
      dyz     :     0.029866
      dx2y2   :     0.030729
      dxy     :     0.022674

 11 C s       :     2.795891  s :     2.795891
      pz      :     1.033188  p :     3.188127
      px      :     1.078628
      py      :     1.076311
      dz2     :     0.025167  d :     0.095265
      dxz     :     0.013842
      dyz     :     0.022440
      dx2y2   :     0.024394
      dxy     :     0.009422

 12 C s       :     2.784975  s :     2.784975
      pz      :     0.979601  p :     2.812424
      px      :     0.933563
      py      :     0.899260
      dz2     :     0.084856  d :     0.407531
      dxz     :     0.111564
      dyz     :     0.085790
      dx2y2   :     0.065692
      dxy     :     0.059628

 13 O s       :     3.407609  s :     3.407609
      pz      :     1.545136  p :     4.630825
      px      :     1.487232
      py      :     1.598457
      dz2     :     0.007997  d :     0.018851
      dxz     :     0.003845
      dyz     :     0.002450
      dx2y2   :     0.000559
      dxy     :     0.004001

 14 O s       :     3.509847  s :     3.509847
      pz      :     1.760710  p :     4.683389
      px      :     1.464021
      py      :     1.458657
      dz2     :     0.003553  d :     0.022932
      dxz     :     0.002590
      dyz     :     0.001883
      dx2y2   :     0.004881
      dxy     :     0.010025

 15 H s       :     0.872387  s :     0.872387
      pz      :     0.035437  p :     0.067866
      px      :     0.016384
      py      :     0.016046

 16 H s       :     0.863499  s :     0.863499
      pz      :     0.014312  p :     0.067650
      px      :     0.018496
      py      :     0.034842

 17 H s       :     0.864276  s :     0.864276
      pz      :     0.013812  p :     0.068907
      px      :     0.040892
      py      :     0.014203

 18 H s       :     0.854786  s :     0.854786
      pz      :     0.015632  p :     0.070117
      px      :     0.019864
      py      :     0.034620

 19 H s       :     0.867134  s :     0.867134
      pz      :     0.014875  p :     0.067795
      px      :     0.020284
      py      :     0.032635

 20 H s       :     0.873146  s :     0.873146
      pz      :     0.034866  p :     0.067858
      px      :     0.017100
      py      :     0.015892

 21 H s       :     0.872840  s :     0.872840
      pz      :     0.026324  p :     0.067809
      px      :     0.014826
      py      :     0.026660

 22 H s       :     0.845103  s :     0.845103
      pz      :     0.015411  p :     0.068395
      px      :     0.017523
      py      :     0.035461

 23 H s       :     0.845392  s :     0.845392
      pz      :     0.027370  p :     0.069134
      px      :     0.015712
      py      :     0.026052

 24 H s       :     0.839832  s :     0.839832
      pz      :     0.014481  p :     0.070285
      px      :     0.017530
      py      :     0.038274

 25 H s       :     0.839483  s :     0.839483
      pz      :     0.014317  p :     0.070294
      px      :     0.022046
      py      :     0.033932

 26 H s       :     0.833654  s :     0.833654
      pz      :     0.014332  p :     0.070527
      px      :     0.017526
      py      :     0.038670

 27 H s       :     0.840924  s :     0.840924
      pz      :     0.014365  p :     0.070105
      px      :     0.021945
      py      :     0.033795

 28 H s       :     0.813380  s :     0.813380
      pz      :     0.014174  p :     0.071149
      px      :     0.017179
      py      :     0.039796

 29 H s       :     0.855606  s :     0.855606
      pz      :     0.013490  p :     0.068463
      px      :     0.016344
      py      :     0.038630

 30 H s       :     0.859960  s :     0.859960
      pz      :     0.028718  p :     0.068140
      px      :     0.016776
      py      :     0.022646

 31 H s       :     0.861830  s :     0.861830
      pz      :     0.013005  p :     0.068827
      px      :     0.042523
      py      :     0.013299

 32 H s       :     0.665720  s :     0.665720
      pz      :     0.033150  p :     0.182613
      px      :     0.081669
      py      :     0.067794



                      *****************************
                      * MAYER POPULATION ANALYSIS *
                      *****************************

  NA   - Mulliken gross atomic population
  ZA   - Total nuclear charge
  QA   - Mulliken gross atomic charge
  VA   - Mayer's total valence
  BVA  - Mayer's bonded valence
  FA   - Mayer's free valence

  ATOM       NA         ZA         QA         VA         BVA        FA
  0 C      6.7614     6.0000    -0.7614     3.5439     3.5439     0.0000
  1 C      5.3549     6.0000     0.6451     2.1475     2.1475     0.0000
  2 C      6.8670     6.0000    -0.8670     3.5659     3.5659    -0.0000
  3 C      7.4073     6.0000    -1.4073     2.5841     2.5841    -0.0000
  4 C      3.9513     6.0000     2.0487    -0.3190    -0.3190     0.0000
  5 C      6.7143     6.0000    -0.7143     4.1627     4.1627    -0.0000
  6 C      6.4441     6.0000    -0.4441     3.1081     3.1081    -0.0000
  7 C      4.9196     6.0000     1.0804     2.3262     2.3262    -0.0000
  8 C      6.8958     6.0000    -0.8958     4.4655     4.4655    -0.0000
  9 C      6.6564     6.0000    -0.6564     3.8530     3.8530    -0.0000
 10 C      5.9798     6.0000     0.0202     2.9813     2.9813    -0.0000
 11 C      6.7370     6.0000    -0.7370     3.7209     3.7209    -0.0000
 12 C      6.0570     6.0000    -0.0570     4.1949     4.1949    -0.0000
 13 O      8.1862     8.0000    -0.1862     2.0334     2.0334     0.0000
 14 O      8.3381     8.0000    -0.3381     2.0230     2.0230    -0.0000
 15 H      0.8377     1.0000     0.1623     0.9410     0.9410     0.0000
 16 H      0.8306     1.0000     0.1694     0.9404     0.9404    -0.0000
 17 H      0.8293     1.0000     0.1707     0.9402     0.9402    -0.0000
 18 H      0.8434     1.0000     0.1566     0.9637     0.9637    -0.0000
 19 H      0.8325     1.0000     0.1675     0.9400     0.9400    -0.0000
 20 H      0.8378     1.0000     0.1622     0.9377     0.9377     0.0000
 21 H      0.8373     1.0000     0.1627     0.9364     0.9364    -0.0000
 22 H      0.8200     1.0000     0.1800     0.9407     0.9407    -0.0000
 23 H      0.8143     1.0000     0.1857     0.9314     0.9314    -0.0000
 24 H      0.8452     1.0000     0.1548     0.9620     0.9620    -0.0000
 25 H      0.8426     1.0000     0.1574     0.9589     0.9589    -0.0000
 26 H      0.8328     1.0000     0.1672     0.9581     0.9581    -0.0000
 27 H      0.8474     1.0000     0.1526     0.9614     0.9614     0.0000
 28 H      0.7729     1.0000     0.2271     0.9332     0.9332    -0.0000
 29 H      0.8055     1.0000     0.1945     0.9360     0.9360    -0.0000
 30 H      0.8209     1.0000     0.1791     0.9388     0.9388    -0.0000
 31 H      0.8205     1.0000     0.1795     0.9327     0.9327     0.0000
 32 H      0.6596     1.0000     0.3404     0.9370     0.9370    -0.0000

  Mayer bond orders larger than 0.100000
B(  0-C ,  1-C ) :   0.6371 B(  0-C ,  2-C ) :  -0.1530 B(  0-C , 15-H ) :   1.0132 
B(  0-C , 16-H ) :   1.0116 B(  0-C , 17-H ) :   0.9991 B(  1-C ,  2-C ) :   0.4315 
B(  1-C ,  3-C ) :   0.4399 B(  1-C ,  5-C ) :   0.1079 B(  1-C , 18-H ) :   0.9844 
B(  2-C ,  3-C ) :   0.5219 B(  2-C ,  4-C ) :  -0.4471 B(  2-C ,  5-C ) :   0.1151 
B(  2-C , 19-H ) :   1.0380 B(  2-C , 20-H ) :   1.0066 B(  2-C , 21-H ) :   1.0039 
B(  3-C ,  4-C ) :  -1.4179 B(  3-C ,  5-C ) :   0.3440 B(  3-C ,  6-C ) :   0.1217 
B(  3-C ,  7-C ) :  -0.2007 B(  3-C ,  8-C ) :   0.1749 B(  3-C , 22-H ) :   1.3223 
B(  3-C , 23-H ) :   1.1608 B(  4-C ,  5-C ) :   0.9539 B(  4-C ,  7-C ) :   0.6207 
B(  4-C ,  8-C ) :  -0.2800 B(  4-C ,  9-C ) :   1.1452 B(  4-C , 10-C ) :  -0.1687 
B(  4-C , 18-H ) :  -0.1334 B(  4-C , 22-H ) :  -0.5124 B(  4-C , 23-H ) :  -0.2215 
B(  5-C ,  6-C ) :   1.0546 B(  5-C ,  9-C ) :   0.5208 B(  5-C , 24-H ) :   1.0380 
B(  6-C ,  7-C ) :   1.2976 B(  6-C ,  8-C ) :   0.3476 B(  6-C ,  9-C ) :  -0.2558 
B(  6-C , 12-C ) :  -0.1916 B(  6-C , 13-O ) :  -0.1528 B(  6-C , 24-H ) :  -0.1039 
B(  6-C , 25-H ) :   1.0069 B(  6-C , 28-H ) :   0.1364 B(  7-C ,  8-C ) :   1.1317 
B(  7-C , 10-C ) :   0.2232 B(  7-C , 11-C ) :  -0.4265 B(  7-C , 12-C ) :  -0.3895 
B(  7-C , 13-O ) :   0.4206 B(  7-C , 28-H ) :  -0.3221 B(  7-C , 29-H ) :  -0.1812 
B(  7-C , 32-H ) :   0.1839 B(  8-C ,  9-C ) :   1.1483 B(  8-C , 10-C ) :   0.1435 
B(  8-C , 11-C ) :   0.4134 B(  8-C , 12-C ) :   0.5706 B(  8-C , 14-O ) :  -0.1775 
B(  8-C , 26-H ) :   0.9890 B(  9-C , 10-C ) :   0.2592 B(  9-C , 22-H ) :   0.1982 
B(  9-C , 27-H ) :   1.0011 B( 10-C , 11-C ) :   0.8704 B( 10-C , 12-C ) :   0.8496 
B( 10-C , 13-O ) :  -0.3173 B( 10-C , 28-H ) :   1.0774 B( 10-C , 29-H ) :   0.1107 
B( 11-C , 12-C ) :  -0.1026 B( 11-C , 29-H ) :   0.9625 B( 11-C , 30-H ) :   1.0060 
B( 11-C , 31-H ) :   0.9905 B( 12-C , 13-O ) :   1.3658 B( 12-C , 14-O ) :   2.0662 
B( 13-O , 32-H ) :   0.8249 

-------
TIMINGS
-------

Total SCF time: 0 days 0 hours 0 min 30 sec 

Total time                  ....      30.027 sec
Sum of individual times     ....      29.934 sec  ( 99.7%)

SCF preparation             ....       0.284 sec  (  0.9%)
Fock matrix formation       ....      29.398 sec  ( 97.9%)
  Startup                   ....       0.009 sec  (  0.0% of F)
  Split-RI-J                ....       4.257 sec  ( 14.5% of F)
  XC integration            ....      18.056 sec  ( 61.4% of F)
    Basis function eval.    ....       2.122 sec  ( 11.8% of XC)
    Density eval.           ....       7.610 sec  ( 42.1% of XC)
    XC-Functional eval.     ....       0.322 sec  (  1.8% of XC)
    XC-Potential eval.      ....       7.757 sec  ( 43.0% of XC)
  CPCM terms                ....       7.039 sec  ( 23.9% of F)
Diagonalization             ....       0.000 sec  (  0.0%)
Density matrix formation    ....       0.019 sec  (  0.1%)
Total Energy calculation    ....       0.015 sec  (  0.0%)
Population analysis         ....       0.052 sec  (  0.2%)
Orbital Transformation      ....       0.028 sec  (  0.1%)
Orbital Orthonormalization  ....       0.000 sec  (  0.0%)
DIIS solution               ....       0.031 sec  (  0.1%)
SOSCF solution              ....       0.107 sec  (  0.4%)
Finished LeanSCF after  30.1 sec

Maximum memory used throughout the entire LEANSCF-calculation: 93.8 MB

-------------------------   --------------------
FINAL SINGLE POINT ENERGY      -656.999963689738
-------------------------   --------------------

                                *** OPTIMIZATION RUN DONE ***


------------------------------------------------------------------------------
                              ORCA PROPERTY CALCULATIONS
------------------------------------------------------------------------------

GBWName                                 ... Ibuprofen\Ibuprofen_TPSS_6-311+G\Ibuprofen_TPSS_6-311+G.orcainp.gbw
Number of atoms                         ...     33
Number of basis functions               ...    438
Max core memory                         ...   1024 MB

Electric properties:
Dipole moment                           ... YES
Quadrupole moment                       ...  NO
Static polarizability (Dipole/Dipole)   ...  NO
Static polarizability (Dipole/Quad.)    ...  NO
Static polarizability (Quad./Quad.)     ...  NO
Static polarizability (Velocity)        ...  NO

Atomic electric properties:
Dipole moment                           ...  NO
Quadrupole moment                       ...  NO
Static polarizability                   ...  NO

Choice of electric origin               ... Center of mass
Position of electric origin             ...    11.688833    -0.577132    -1.481425

General magnetic properties:
Magnetizability                         ...  NO

EPR properties:
g-Tensor (aka g-matrix)                 ...  NO
Zero-Field splitting spin-orbit         ...  NO
Zero-field splitting spin-spin          ...  NO
Hyperfine couplings                     ...  NO (   0 nuclei)
Quadrupole couplings                    ...  NO (   0 nuclei)
Contact density                         ...  NO (   0 nuclei)

NMR properties:
Chemical shifts                         ...  NO (   0 nuclei)
Spin-rotation constants                 ...  NO (   0 nuclei)
Spin-spin couplings                     ...  NO (   0 nuclei,    0 pairs)

Choice of magnetic origin               ... GIAO
Position of magnetic origin             ...     0.000000     0.000000     0.000000

Properties with geometric perturbations:
SCF Hessian                             ...  NO
IR spectrum                             ...  NO
VCD spectrum                            ...  NO
X-ray spectroscopy properties:
SCF XES/XAS/RIXS spectra                ...  NO


-------------
DIPOLE MOMENT
-------------

Method             : SCF
Type of density    : Electron Density
Multiplicity       :   1
Irrep              :   0
Energy             :  -656.9999636897381379 Eh
Relativity type    : 
Basis              : AO
                                X                 Y                 Z
Electronic contribution:     19.158531711       2.989198152      -0.678389048
Nuclear contribution   :    -21.150595684      -4.569482074       0.053123309
                        -----------------------------------------
Total Dipole Moment    :     -1.992063973      -1.580283922      -0.625265739
                        -----------------------------------------
Magnitude (a.u.)       :      2.618505946
Magnitude (Debye)      :      6.655713177



--------------------
Rotational spectrum 
--------------------
 
Rotational constants in cm-1:             0.048074             0.008439             0.007942 
Rotational constants in MHz :          1441.228937           253.009802           238.109847 

Dipole components along the rotational axes: 
x,y,z [a.u.] :     2.167018    -1.201022     0.847439 
x,y,z [Debye]:     5.508123    -3.052754     2.154018 

 

Dipole moment calculation done in   0.0 sec 

Maximum memory used throughout the entire PROP-calculation: 36.3 MB

--------------------------------
SUGGESTED CITATIONS FOR THIS RUN
--------------------------------

Below you find a list of papers that are relevant to this ORCA run
We neither can nor want to force you to cite these papers, but we appreciate if you do
You receive ORCA, which is the product of decades of hard work by many enthusiastic individuals, for free
The only thing we kindly ask in return is that you cite our papers,
We deeply appreciate it, if you show your appreciation for ORCA by not just citing the generic ORCA reference.

Please note that relegating all ORCA citations to the supporting information does *not* help us.
SI sections are not indexed - citations you put there will not count into any citation statistics
But we need these citations in order to attract the funding resources that allow us to do what we are doing

Therefore, if you are a happy ORCA user, please consider citing a few of the papers listed below in the main body of your paper

In addition to the list printed below, the program has created the file Ibuprofen\Ibuprofen_TPSS_6-311+G\Ibuprofen_TPSS_6-311+G.orcainp.bibtex that contains the list in bibtex format
You can import this file easily into all common literature databanks and citation aid programs


List of essential papers. We consider these as the minimum necessary citations

  1. Neese,F.
     Software update: the ORCA program system, version 5.0
     WIRES Comput. Molec. Sci., 2022 12(1)e1606
     doi.org/10.1002/wcms.1606

List of papers to cite with high priority. The work reported in these papers was absolutely
necessary for this run to complete.
Our perspective: the developers of density functionals and basis sets usually get cited in chemistry papers
Good! But without the algorithms to do something with them, the functionals or basis sets would not do anything.
Hence, in our opinion, the algorithm design and method developments papers are equally worthy of getting cited

  1. Neese,F.
     An improvement of the resolution of the identity approximation for the formation of the Coulomb matrix
     J. Comp. Chem., 2003 24(14)1740-1747
     doi.org/10.1002/jcc.10318
  2. Garcia-Rates,M.; Neese,F.
     Effect of the Solute Cavity on the Solvation Energy and its Derivatives within the Framework of the Gaussian Charge Scheme
     J. Comput. Chem., 2020 41 922-939
     doi.org/10.1002/jcc.26139
  3. Neese,F.
     The SHARK Integral Generation and Digestion System
     J. Comp. Chem., 2022  1-16
     doi.org/10.1002/jcc.26942

List of suggested additional citations. These are papers that are important in the 'surrounding' of 
of this run, or papers that preceded the highly important papers. If you like your results we are grateful for a citation.

  1. Neese,F.
     The ORCA program system
     WIRES Comput. Molec. Sci., 2012 2(1)73-78
     doi.org/10.1002/wcms.81
  2. Neese,F.
     Software update: the ORCA program system, version 4.0
     WIRES Comput. Molec. Sci., 2018 8(1)1-6
     doi.org/10.1002/wcms.1327
  3. Neese,F.; Wennmohs,F.; Becker,U.; Riplinger,C.
     The ORCA quantum chemistry program package
     J. Chem. Phys., 2020 152 Art. No. L224108
     doi.org/10.1063/5.0004608

List of optional additional citations

  1. Neese,F.
     Approximate second-order SCF convergence for spin unrestricted wavefunctions
     Chem. Phys. Lett., 2000 325(1-3)93-98
     doi.org/10.1016/s0009-2614(00)00662-x

Timings for individual modules:

Sum of individual times          ...     1428.872 sec (=  23.815 min)
Startup calculation              ...       21.028 sec (=   0.350 min)   1.5 %
SCF iterations                   ...      991.872 sec (=  16.531 min)  69.4 %
Property calculations            ...        0.118 sec (=   0.002 min)   0.0 %
SCF Gradient evaluation          ...      415.677 sec (=   6.928 min)  29.1 %
Geometry relaxation              ...        0.177 sec (=   0.003 min)   0.0 %
                             ****ORCA TERMINATED NORMALLY****
TOTAL RUN TIME: 0 days 0 hours 23 minutes 50 seconds 480 msec
