
                                 *****************
                                 * O   R   C   A *
                                 *****************

                                            #,                                       
                                            ###                                      
                                            ####                                     
                                            #####                                    
                                            ######                                   
                                           ########,                                 
                                     ,,################,,,,,                         
                               ,,#################################,,                 
                          ,,##########################################,,             
                       ,#########################################, ''#####,          
                    ,#############################################,,   '####,        
                  ,##################################################,,,,####,       
                ,###########''''           ''''###############################       
              ,#####''   ,,,,##########,,,,          '''####'''          '####       
            ,##' ,,,,###########################,,,                        '##       
           ' ,,###''''                  '''############,,,                           
         ,,##''                                '''############,,,,        ,,,,,,###''
      ,#''                                            '''#######################'''  
     '                                                          ''''####''''         
             ,#######,   #######,   ,#######,      ##                                
            ,#'     '#,  ##    ##  ,#'     '#,    #''#        ,####,   ,####,        
            ##       ##  ##   ,#'  ##            #'  '#       #'       #'  '#        
            ##       ##  #######   ##           ,######,      #####,   #    #        
            '#,     ,#'  ##    ##  '#,     ,#' ,#      #,     #,   #   #,  ,#        
             '#######'   ##     ##  '#######'  #'      '#     '####' # '####'        



                #########################################################
                #                        -***-                          #
                #          Department of theory and spectroscopy        #
                #                                                       #
                #                      Frank Neese                      #
                #                                                       #
                #     Directorship, Architecture, Infrastructure        #
                #                    SHARK, DRIVERS                     #
                #        Core code/Algorithms in most modules           #
                #                                                       #
                #        Max Planck Institute fuer Kohlenforschung      #
                #                Kaiser Wilhelm Platz 1                 #
                #                 D-45470 Muelheim/Ruhr                 #
                #                      Germany                          #
                #                                                       #
                #                  All rights reserved                  #
                #                        -***-                          #
                #########################################################


                         Program Version 6.0.0  -   RELEASE   -


 With contributions from (in alphabetic order):
   Daniel Aravena         : Magnetic Suceptibility
   Michael Atanasov       : Ab Initio Ligand Field Theory (pilot matlab implementation)
   Alexander A. Auer      : GIAO ZORA, VPT2 properties, NMR spectrum
   Ute Becker             : All parallelization in ORCA, NUMFREQ, NUMCALC
   Giovanni Bistoni       : ED, misc. LED, open-shell LED, HFLD
   Martin Brehm           : Molecular dynamics
   Dmytro Bykov           : pre 5.0 version of the SCF Hessian
   Marcos Casanova-Páez   : Triplet and SCS-CIS(D). UHF-(DLPNO)-IP/EA/STEOM-CCSD. UHF-CVS-IP/STEOM-CCSD
   Vijay G. Chilkuri      : MRCI spin determinant printing, contributions to CSF-ICE
   Pauline Colinet        : FMM embedding
   Dipayan Datta          : RHF DLPNO-CCSD density
   Achintya Kumar Dutta   : EOM-CC, STEOM-CC
   Nicolas Foglia         : Exact transition moments, OPA infrastructure, MCD improvements
   Dmitry Ganyushin       : Spin-Orbit,Spin-Spin,Magnetic field MRCI
   Miquel Garcia          : C-PCM and meta-GGA Hessian, CCSD/C-PCM, Gaussian charge scheme
   Tiago L. C. Gouveia    : GS-ROHF, GS-ROCIS
   Yang Guo               : DLPNO-NEVPT2, F12-NEVPT2, CIM, IAO-localization
   Andreas Hansen         : Spin unrestricted coupled pair/coupled cluster methods
   Ingolf Harden          : AUTO-CI MPn and infrastructure 
   Benjamin Helmich-Paris : MC-RPA, TRAH-(SCF,CASSCF), AVAS, COSX integrals, SCF dyn. polar.
   Lee Huntington         : MR-EOM, pCC
   Robert Izsak           : Overlap fitted RIJCOSX, COSX-SCS-MP3, EOM
   Riya Kayal             : Wick's Theorem for AUTO-CI, AUTO-CI UHF-CCSDT
   Emily Kempfer          : AUTO-CI, RHF CISDT and CCSDT
   Christian Kollmar      : KDIIS, OOCD, Brueckner-CCSD(T), CCSD density, CASPT2, CASPT2-K, improved NEVPT2
   Axel Koslowski         : Symmetry handling
   Simone Kossmann        : Meta GGA functionals, TD-DFT gradient, OOMP2, (MP2 Hessian; deprecated post 5.0)
   Lucas Lang             : DCDCAS
   Marvin Lechner         : AUTO-CI (C++ implementation), FIC-MRCC
   Spencer Leger          : CASSCF response
   Dagmar Lenk            : GEPOL surface, SMD, ORCA-2-JSON
   Dimitrios Liakos       : Extrapolation schemes; Compound Job, initial MDCI parallelization
   Dimitrios Manganas     : Further ROCIS development; embedding schemes. LFT, Crystal Embedding
   Dimitrios Pantazis     : SARC Basis sets
   Anastasios Papadopoulos: AUTO-CI, single reference methods and gradients
   Taras Petrenko         : pre 6.0 DFT Hessian and TD-DFT gradient, (ASA, deprecated), ECA, 1-Electron XAS/XES, NRVS
   Peter Pinski           : DLPNO-MP2, DLPNO-MP2 Gradient
   Christoph Reimann      : Effective Core Potentials
   Marius Retegan         : Local ZFS, SOC
   Christoph Riplinger    : Optimizer, TS searches, QM/MM, DLPNO-CCSD(T), (RO)-DLPNO pert. Triples
   Michael Roemelt        : Original ROCIS implementation
   Masaaki Saitow         : Open-shell DLPNO-CCSD energy and density
   Barbara Sandhoefer     : DKH picture change effects
   Kantharuban Sivalingam : CASSCF convergence/infrastructure, NEVPT2 and variants, FIC-MRCI
   Bernardo de Souza      : ESD, SOC TD-DFT
   Georgi Stoychev        : AutoAux, RI-MP2 NMR, DLPNO-MP2 response, X2C
   Van Anh Tran           : RI-MP2 g-tensors
   Willem Van den Heuvel  : Paramagnetic NMR
   Zikuan Wang            : NOTCH, Electric field optimization 
   Frank Wennmohs         : Technical directorship and infrastructure
   Hang Xu                : AUTO-CI-Response properties 


 We gratefully acknowledge several colleagues who have allowed us to
 interface, adapt or use parts of their codes:
   Stefan Grimme, W. Hujo, H. Kruse, P. Pracht,  : VdW corrections, initial TS optimization,
                  C. Bannwarth, S. Ehlert,         DFT functionals, gCP, sTDA/sTD-DF
                  L. Wittmann, M. Mueller
   Ed Valeev, F. Pavosevic, A. Kumar             : LibInt (2-el integral package), F12 methods
   Garnet Chan, S. Sharma, J. Yang, R. Olivares  : DMRG
   Ulf Ekstrom                                   : XCFun DFT Library
   Mihaly Kallay                                 : mrcc  (arbitrary order and MRCC methods)
   Frank Weinhold                                : gennbo (NPA and NBO analysis)
   Simon Mueller                                 : openCOSMO-RS
   Christopher J. Cramer and Donald G. Truhlar   : smd solvation model
   Lars Goerigk                                  : TD-DFT with DH, B97 family of functionals
   V. Asgeirsson, H. Jonsson                     : NEB implementation
   FAccTs GmbH                                   : IRC, NEB, NEB-TS, DLPNO-Multilevel, CI-OPT
                                                   MM, QMMM, 2- and 3-layer-ONIOM, Crystal-QMMM,
                                                   LR-CPCM, SF, NACMEs, symmetry and pop. for TD-DFT,
                                                   nearIR, NL-DFT gradient (VV10), updates on ESD,
                                                   ML-optimized integration grids, MBIS, APM,
                                                   GOAT, DOCKER, SOLVATOR, interface openCOSMO-RS
   S Lehtola, MJT Oliveira, MAL Marques          : LibXC Library
   Liviu Ungur et al                             : ANISO software


 Your calculation uses the libint2 library for the computation of 2-el integrals
 For citations please refer to: http://libint.valeyev.net

 Your ORCA version has been built with support for libXC version: 6.2.2
 For citations please refer to: https://libxc.gitlab.io

 This ORCA versions uses:
   CBLAS   interface :  Fast vector & matrix operations
   LAPACKE interface :  Fast linear algebra routines
   Shared memory     :  Shared parallel matrices


Warning: RI is on but no J-basis has been assigned. Assigning Def2/J (nothing to worry about!)
================================================================================

----- Orbital basis set information -----
Your calculation utilizes the basis: def2-TZVP
   F. Weigend and R. Ahlrichs, Phys. Chem. Chem. Phys. 7, 3297 (2005).

----- AuxJ basis set information -----
Your calculation utilizes the auxiliary basis: def2/J
   F. Weigend, Phys. Chem. Chem. Phys. 8, 1057 (2006).

================================================================================
                                        WARNINGS
                       Please study these warnings very carefully!
================================================================================


WARNING: Geometry Optimization
  ===> : Switching off AutoStart
         For restart on a previous wavefunction, please use MOREAD

================================================================================
                                       INPUT FILE
================================================================================
NAME = Triclosan\Triclosan_TPSS_def2-TZVP\Triclosan_TPSS_def2-TZVP.orcainp
|  1> # ORCA input file
|  2> # 
|  3> !TPSS def2-TZVP Opt CPCM(WATER)
|  4> * xyz 0 1
|  5>    C       -0.49838         1.45672         0.09896
|  6>    C        0.83636         1.86187         0.13987
|  7>    C        1.85850         0.90964         0.07692
|  8>    C        1.52705        -0.44553         0.10327
|  9>    C        0.19399        -0.85911         0.06588
| 10>    C       -0.81311         0.09845         0.04328
| 11>   Cl       -2.45804        -0.38995        -0.04430
| 12>    O        2.48623        -1.41804         0.15924
| 13>    O        3.19540         1.23915         0.00408
| 14>    C        3.55840         2.36555        -0.71342
| 15>    C        4.59924         3.16189        -0.21840
| 16>    C        4.97545         4.33057        -0.88996
| 17>    C        4.31222         4.69779        -2.05616
| 18>    C        3.30213         3.89395        -2.58058
| 19>    C        2.94419         2.71337        -1.92599
| 20>   Cl        4.74503         6.15332        -2.86475
| 21>   Cl        5.43890         2.74189         1.23085
| 22>    H       -1.28677         2.20447         0.09898
| 23>    H        1.06264         2.92223         0.19335
| 24>    H       -0.04081        -1.92109         0.05235
| 25>    H        3.32941        -0.97731         0.37369
| 26>    H        5.77651         4.95189        -0.49678
| 27>    H        2.78688         4.18033        -3.49530
| 28>    H        2.16802         2.08687        -2.36091
| 29> **                         ****END OF INPUT****
================================================================================

                       *****************************
                       * Geometry Optimization Run *
                       *****************************

Geometry optimization settings:
Update method            Update   .... BFGS
Choice of coordinates    CoordSys .... (2022) Redundant Internals
Initial Hessian          InHess   .... Almloef's Model
Max. no of cycles        MaxIter  .... 72

Convergence Tolerances:
Energy Change            TolE     ....  5.0000e-06 Eh
Max. Gradient            TolMAXG  ....  3.0000e-04 Eh/bohr
RMS Gradient             TolRMSG  ....  1.0000e-04 Eh/bohr
Max. Displacement        TolMAXD  ....  4.0000e-03 bohr
RMS Displacement         TolRMSD  ....  2.0000e-03 bohr
Strict Convergence                .... False

------------------------------------------------------------------------------
                        ORCA OPTIMIZATION COORDINATE SETUP
------------------------------------------------------------------------------

The optimization will be done in redundant internal coordinates (2022)
Making redundant internal coordinates   ...  (2022 redundants) done
Evaluating the initial hessian          ...  (Almloef) done
Evaluating the coordinates              ...  done
Calculating the B-matrix                .... done
Calculating the G-matrix                .... done
Diagonalizing the G-matrix              .... done
Small eigenvalue found = 5.189e-03
Small eigenvalue found = 1.845e-02
Small eigenvalue found = 2.339e-02
The first mode is                       ....   52
The number of degrees of freedom        ....   66

    -----------------------------------------------------------------
                    Redundant Internal Coordinates


    -----------------------------------------------------------------
         Definition                    Initial Value    Approx d2E/dq
    -----------------------------------------------------------------
      1. B(C   1,C   0)                  1.3955         0.612355   
      2. B(C   2,C   1)                  1.3984         0.605849   
      3. B(C   3,C   2)                  1.3954         0.612606   
      4. B(C   4,C   3)                  1.3962         0.610629   
      5. B(C   5,C   4)                  1.3898         0.625141   
      6. B(C   5,C   0)                  1.3954         0.612596   
      7. B(Cl  6,C   5)                  1.7181         0.419963   
      8. B(O   7,C   3)                  1.3671         0.608733   
      9. B(O   8,C   2)                  1.3788         0.583028   
     10. B(C   9,O   8)                  1.3840         0.572147   
     11. B(C  10,C   9)                  1.4009         0.600249   
     12. B(C  11,C  10)                  1.3994         0.603574   
     13. B(C  12,C  11)                  1.3910         0.622616   
     14. B(C  13,C  12)                  1.3934         0.617128   
     15. B(C  14,C   9)                  1.4031         0.595543   
     16. B(C  14,C  13)                  1.3966         0.609921   
     17. B(Cl 15,C  12)                  1.7204         0.416517   
     18. B(Cl 16,C  10)                  1.7268         0.406846   
     19. B(H  17,C   0)                  1.0866         0.364633   
     20. B(H  18,C   1)                  1.0856         0.366031   
     21. B(H  19,C   4)                  1.0877         0.363141   
     22. B(H  20,O   8)                  2.2511         0.004531   
     23. B(H  20,O   7)                  0.9753         0.491561   
     24. B(H  21,C  11)                  1.0873         0.363625   
     25. B(H  22,C  13)                  1.0882         0.362471   
     26. B(H  23,C  14)                  1.0882         0.362539   
     27. A(C   1,C   0,H  17)          119.6162         0.352915   
     28. A(C   1,C   0,C   5)          119.9682         0.432164   
     29. A(C   5,C   0,H  17)          120.4118         0.352938   
     30. A(C   0,C   1,H  18)          118.9740         0.353144   
     31. A(C   2,C   1,H  18)          120.9976         0.352506   
     32. A(C   0,C   1,C   2)          120.0073         0.431305   
     33. A(C   1,C   2,C   3)          119.1344         0.431337   
     34. A(C   1,C   2,O   8)          123.2546         0.424738   
     35. A(C   3,C   2,O   8)          117.6070         0.425582   
     36. A(C   2,C   3,C   4)          120.9279         0.431946   
     37. A(C   4,C   3,O   7)          117.4034         0.428636   
     38. A(C   2,C   3,O   7)          121.6678         0.428885   
     39. A(C   3,C   4,C   5)          119.2209         0.433522   
     40. A(C   5,C   4,H  19)          121.0675         0.353906   
     41. A(C   3,C   4,H  19)          119.7115         0.352502   
     42. A(C   0,C   5,Cl  6)          119.6487         0.422262   
     43. A(C   0,C   5,C   4)          120.4351         0.433773   
     44. A(C   4,C   5,Cl  6)          119.9152         0.423795   
     45. A(C   3,O   7,H  20)          107.1047         0.365416   
     46. A(C   2,O   8,C   9)          118.4377         0.417690   
     47. A(O   8,C   9,C  10)          118.3161         0.422608   
     48. A(C  10,C   9,C  14)          119.3218         0.428441   
     49. A(O   8,C   9,C  14)          122.3438         0.422014   
     50. A(C   9,C  10,C  11)          120.3239         0.429471   
     51. A(C  11,C  10,Cl 16)          118.3700         0.418768   
     52. A(C   9,C  10,Cl 16)          121.3041         0.418356   
     53. A(C  12,C  11,H  21)          120.2377         0.353744   
     54. A(C  10,C  11,H  21)          120.1142         0.351889   
     55. A(C  10,C  11,C  12)          119.6461         0.432302   
     56. A(C  13,C  12,Cl 15)          119.5757         0.422197   
     57. A(C  11,C  12,Cl 15)          119.8326         0.422865   
     58. A(C  11,C  12,C  13)          120.5911         0.434032   
     59. A(C  12,C  13,C  14)          119.8068         0.432427   
     60. A(C  14,C  13,H  22)          119.6764         0.352323   
     61. A(C  12,C  13,H  22)          120.5164         0.353024   
     62. A(C   9,C  14,C  13)          120.1619         0.429671   
     63. A(C  13,C  14,H  23)          118.8279         0.352334   
     64. A(C   9,C  14,H  23)          120.9938         0.350916   
     65. D(C   2,C   1,C   0,H  17)   -177.0031         0.025909   
     66. D(H  18,C   1,C   0,H  17)      1.3416         0.025909   
     67. D(C   2,C   1,C   0,C   5)      2.2818         0.025909   
     68. D(H  18,C   1,C   0,C   5)   -179.3735         0.025909   
     69. D(C   3,C   2,C   1,H  18)    175.5746         0.025331   
     70. D(O   8,C   2,C   1,H  18)     -3.6759         0.025331   
     71. D(O   8,C   2,C   1,C   0)    174.6347         0.025331   
     72. D(C   3,C   2,C   1,C   0)     -6.1148         0.025331   
     73. D(O   7,C   3,C   2,O   8)      4.9411         0.025932   
     74. D(O   7,C   3,C   2,C   1)   -174.3516         0.025932   
     75. D(C   4,C   3,C   2,O   8)   -174.7104         0.025932   
     76. D(C   4,C   3,C   2,C   1)      5.9969         0.025932   
     77. D(H  19,C   4,C   3,C   2)    177.8731         0.025755   
     78. D(C   5,C   4,C   3,O   7)    178.3616         0.025755   
     79. D(C   5,C   4,C   3,C   2)     -1.9726         0.025755   
     80. D(H  19,C   4,C   3,O   7)     -1.7928         0.025755   
     81. D(Cl  6,C   5,C   4,H  19)     -1.4413         0.027070   
     82. D(C   0,C   5,C   4,H  19)    178.1925         0.027070   
     83. D(C   0,C   5,C   4,C   3)     -1.9640         0.027070   
     84. D(Cl  6,C   5,C   0,H  17)      0.7193         0.025931   
     85. D(Cl  6,C   5,C   0,C   1)   -178.5598         0.025931   
     86. D(Cl  6,C   5,C   4,C   3)    178.4022         0.027070   
     87. D(C   4,C   5,C   0,H  17)   -178.9155         0.025931   
     88. D(C   4,C   5,C   0,C   1)      1.8053         0.025931   
     89. D(H  20,O   7,C   3,C   4)   -167.9419         0.027116   
     90. D(H  20,O   7,C   3,C   2)     12.3948         0.027116   
     91. D(C   9,O   8,C   2,C   3)    145.4603         0.027282   
     92. D(C   9,O   8,C   2,C   1)    -35.2785         0.027282   
     93. D(C  14,C   9,O   8,C   2)    -39.3694         0.026210   
     94. D(C  10,C   9,O   8,C   2)    142.2004         0.026210   
     95. D(C  11,C  10,C   9,O   8)   -178.1978         0.024839   
     96. D(Cl 16,C  10,C   9,C  14)   -177.1840         0.024839   
     97. D(Cl 16,C  10,C   9,O   8)      1.2949         0.024839   
     98. D(C  11,C  10,C   9,C  14)      3.3233         0.024839   
     99. D(H  21,C  11,C  10,Cl 16)     -0.1788         0.025130   
    100. D(H  21,C  11,C  10,C   9)    179.3286         0.025130   
    101. D(C  12,C  11,C  10,Cl 16)   -179.6682         0.025130   
    102. D(C  12,C  11,C  10,C   9)     -0.1608         0.025130   
    103. D(Cl 15,C  12,C  11,H  21)     -0.9707         0.026838   
    104. D(Cl 15,C  12,C  11,C  10)    178.5182         0.026838   
    105. D(C  13,C  12,C  11,H  21)    178.7584         0.026838   
    106. D(C  13,C  12,C  11,C  10)     -1.7528         0.026838   
    107. D(H  22,C  13,C  12,Cl 15)     -0.0147         0.026339   
    108. D(H  22,C  13,C  12,C  11)   -179.7444         0.026339   
    109. D(C  14,C  13,C  12,Cl 15)   -179.8112         0.026339   
    110. D(C  14,C  13,C  12,C  11)      0.4591         0.026339   
    111. D(H  23,C  14,C  13,H  22)      1.4971         0.025692   
    112. D(H  23,C  14,C  13,C  12)   -178.7046         0.025692   
    113. D(C   9,C  14,C  13,H  22)   -177.0456         0.025692   
    114. D(C   9,C  14,C  13,C  12)      2.7526         0.025692   
    115. D(H  23,C  14,C   9,C  10)    176.8704         0.024431   
    116. D(H  23,C  14,C   9,O   8)     -1.5445         0.024431   
    117. D(C  13,C  14,C   9,C  10)     -4.6189         0.024431   
    118. D(C  13,C  14,C   9,O   8)    176.9661         0.024431   
    -----------------------------------------------------------------

Number of atoms                         .... 24
Number of degrees of freedom            .... 118


         *************************************************************
         *                GEOMETRY OPTIMIZATION CYCLE   1            *
         *************************************************************
---------------------------------
CARTESIAN COORDINATES (ANGSTROEM)
---------------------------------
  C     -0.498380    1.456720    0.098960
  C      0.836360    1.861870    0.139870
  C      1.858500    0.909640    0.076920
  C      1.527050   -0.445530    0.103270
  C      0.193990   -0.859110    0.065880
  C     -0.813110    0.098450    0.043280
  Cl    -2.458040   -0.389950   -0.044300
  O      2.486230   -1.418040    0.159240
  O      3.195400    1.239150    0.004080
  C      3.558400    2.365550   -0.713420
  C      4.599240    3.161890   -0.218400
  C      4.975450    4.330570   -0.889960
  C      4.312220    4.697790   -2.056160
  C      3.302130    3.893950   -2.580580
  C      2.944190    2.713370   -1.925990
  Cl     4.745030    6.153320   -2.864750
  Cl     5.438900    2.741890    1.230850
  H     -1.286770    2.204470    0.098980
  H      1.062640    2.922230    0.193350
  H     -0.040810   -1.921090    0.052350
  H      3.329410   -0.977310    0.373690
  H      5.776510    4.951890   -0.496780
  H      2.786880    4.180330   -3.495300
  H      2.168020    2.086870   -2.360910

----------------------------
CARTESIAN COORDINATES (A.U.)
----------------------------
  NO LB      ZA    FRAG     MASS         X           Y           Z
   0 C     6.0000    0    12.011   -0.941802    2.752802    0.187007
   1 C     6.0000    0    12.011    1.580491    3.518424    0.264316
   2 C     6.0000    0    12.011    3.512056    1.718970    0.145358
   3 C     6.0000    0    12.011    2.885706   -0.841930    0.195152
   4 C     6.0000    0    12.011    0.366588   -1.623483    0.124495
   5 C     6.0000    0    12.011   -1.536555    0.186044    0.081787
   6 Cl   17.0000    0    35.453   -4.645022   -0.736899   -0.083715
   7 O     8.0000    0    15.999    4.698294   -2.679707    0.300920
   8 O     8.0000    0    15.999    6.038431    2.341654    0.007710
   9 C     6.0000    0    12.011    6.724401    4.470242   -1.348168
  10 C     6.0000    0    12.011    8.691304    5.975106   -0.412716
  11 C     6.0000    0    12.011    9.402238    8.183591   -1.681781
  12 C     6.0000    0    12.011    8.148915    8.877537   -3.885579
  13 C     6.0000    0    12.011    6.240121    7.358499   -4.876589
  14 C     6.0000    0    12.011    5.563713    5.127526   -3.639594
  15 Cl   17.0000    0    35.453    8.966807   11.628090   -5.413593
  16 Cl   17.0000    0    35.453   10.278031    5.181421    2.325969
  17 H     1.0000    0     1.008   -2.431643    4.165845    0.187045
  18 H     1.0000    0     1.008    2.008099    5.522214    0.365379
  19 H     1.0000    0     1.008   -0.077120   -3.630334    0.098927
  20 H     1.0000    0     1.008    6.291673   -1.846848    0.706172
  21 H     1.0000    0     1.008   10.916022    9.357716   -0.938778
  22 H     1.0000    0     1.008    5.266440    7.899679   -6.605160
  23 H     1.0000    0     1.008    4.096964    3.943613   -4.461473

--------------------------------
INTERNAL COORDINATES (ANGSTROEM)
--------------------------------
 C      0   0   0     0.000000000000     0.00000000     0.00000000
 C      1   0   0     1.395475194405     0.00000000     0.00000000
 C      2   1   0     1.398382942902   120.00730714     0.00000000
 C      3   2   1     1.395363448676   119.13439743   353.88521152
 C      4   3   2     1.396243314075   120.92787852     5.99690044
 C      5   4   3     1.389849748570   119.22087215   358.02744876
 Cl     6   5   4     1.718138388285   119.91522697   178.40217544
 O      4   3   2     1.367089833698   121.66780929   185.64837581
 O      3   2   1     1.378834332217   123.25460873   174.63471367
 C      9   3   2     1.383962503105   118.43773013   324.72150892
 C     10   9   3     1.400910454526   118.31610011   142.20041341
 C     11  10   9     1.399406924415   120.32394736   181.80216421
 C     12  11  10     1.390951832847   119.64607025   359.83916149
 C     13  12  11     1.393361722633   120.59113197   358.24719922
 C     14  13  12     1.396559432355   119.80682487     0.45907096
 Cl    13  12  11     1.720380732600   119.83263710   178.51818599
 Cl    11  10   9     1.726775746326   121.30414926     1.29488420
 H      1   2   3     1.086595074073   119.61615663   182.99686979
 H      2   1   3     1.085553351245   118.97395465   178.34468767
 H      5   4   3     1.087711184690   119.71147944   177.87310101
 H      8   4   3     0.975286751576   107.10469875    12.39482959
 H     12  11  10     1.087348232352   120.11423103   179.32864385
 H     14  13  12     1.088213556844   120.51644043   180.25560822
 H     15  14  13     1.088162453543   118.82789416   181.29536685

---------------------------
INTERNAL COORDINATES (A.U.)
---------------------------
 C      0   0   0     0.000000000000     0.00000000     0.00000000
 C      1   0   0     2.637065944106     0.00000000     0.00000000
 C      2   1   0     2.642560792432   120.00730714     0.00000000
 C      3   2   1     2.636854775281   119.13439743   353.88521152
 C      4   3   2     2.638517479921   120.92787852     5.99690044
 C      5   4   3     2.626435392097   119.22087215   358.02744876
 Cl     6   5   4     3.246811014036   119.91522697   178.40217544
 O      4   3   2     2.583425386157   121.66780929   185.64837581
 O      3   2   1     2.605619271938   123.25460873   174.63471367
 C      9   3   2     2.615310110484   118.43773013   324.72150892
 C     10   9   3     2.647337097201   118.31610011   142.20041341
 C     11  10   9     2.644495837057   120.32394736   181.80216421
 C     12  11  10     2.628518029556   119.64607025   359.83916149
 C     13  12  11     2.633072061266   120.59113197   358.24719922
 C     14  13  12     2.639114856896   119.80682487     0.45907096
 Cl    13  12  11     3.251048430688   119.83263710   178.51818599
 Cl    11  10   9     3.263133255254   121.30414926     1.29488420
 H      1   2   3     2.053367108466   119.61615663   182.99686979
 H      2   1   3     2.051398537614   118.97395465   178.34468767
 H      5   4   3     2.055476251867   119.71147944   177.87310101
 H      8   4   3     1.843024862521   107.10469875    12.39482959
 H     12  11  10     2.054790371350   120.11423103   179.32864385
 H     14  13  12     2.056425597656   120.51644043   180.25560822
 H     15  14  13     2.056329026411   118.82789416   181.29536685

---------------------
BASIS SET INFORMATION
---------------------
There are 4 groups of distinct atoms

 Group   1 Type C   : 11s6p2d1f contracted to 5s3p2d1f pattern {62111/411/11/1}
 Group   2 Type Cl  : 14s9p3d1f contracted to 5s5p2d1f pattern {73211/51111/21/1}
 Group   3 Type O   : 11s6p2d1f contracted to 5s3p2d1f pattern {62111/411/11/1}
 Group   4 Type H   : 5s1p contracted to 3s1p pattern {311/1}

Atom   0C    basis set group =>   1
Atom   1C    basis set group =>   1
Atom   2C    basis set group =>   1
Atom   3C    basis set group =>   1
Atom   4C    basis set group =>   1
Atom   5C    basis set group =>   1
Atom   6Cl   basis set group =>   2
Atom   7O    basis set group =>   3
Atom   8O    basis set group =>   3
Atom   9C    basis set group =>   1
Atom  10C    basis set group =>   1
Atom  11C    basis set group =>   1
Atom  12C    basis set group =>   1
Atom  13C    basis set group =>   1
Atom  14C    basis set group =>   1
Atom  15Cl   basis set group =>   2
Atom  16Cl   basis set group =>   2
Atom  17H    basis set group =>   4
Atom  18H    basis set group =>   4
Atom  19H    basis set group =>   4
Atom  20H    basis set group =>   4
Atom  21H    basis set group =>   4
Atom  22H    basis set group =>   4
Atom  23H    basis set group =>   4
---------------------------------
AUXILIARY/J BASIS SET INFORMATION
---------------------------------
There are 4 groups of distinct atoms

 Group   1 Type C   : 12s5p4d2f1g contracted to 6s4p3d1f1g pattern {711111/2111/211/2/1}
 Group   2 Type Cl  : 14s5p5d2f1g contracted to 8s4p3d1f1g pattern {71111111/2111/311/2/1}
 Group   3 Type O   : 12s5p4d2f1g contracted to 6s4p3d1f1g pattern {711111/2111/211/2/1}
 Group   4 Type H   : 5s2p1d contracted to 3s1p1d pattern {311/2/1}

Atom   0C    basis set group =>   1
Atom   1C    basis set group =>   1
Atom   2C    basis set group =>   1
Atom   3C    basis set group =>   1
Atom   4C    basis set group =>   1
Atom   5C    basis set group =>   1
Atom   6Cl   basis set group =>   2
Atom   7O    basis set group =>   3
Atom   8O    basis set group =>   3
Atom   9C    basis set group =>   1
Atom  10C    basis set group =>   1
Atom  11C    basis set group =>   1
Atom  12C    basis set group =>   1
Atom  13C    basis set group =>   1
Atom  14C    basis set group =>   1
Atom  15Cl   basis set group =>   2
Atom  16Cl   basis set group =>   2
Atom  17H    basis set group =>   4
Atom  18H    basis set group =>   4
Atom  19H    basis set group =>   4
Atom  20H    basis set group =>   4
Atom  21H    basis set group =>   4
Atom  22H    basis set group =>   4
Atom  23H    basis set group =>   4
------------------------------------------------------------------------------
                             ORCA STARTUP CALCULATIONS
                           -- RI-GTO INTEGRALS CHOSEN --
------------------------------------------------------------------------------
------------------------------------------------------------------------------
                   ___                                                        
                  /   \      - P O W E R E D   B Y -                         
                 /     \                                                     
                 |  |  |   _    _      __       _____    __    __             
                 |  |  |  | |  | |    /  \     |  _  \  |  |  /  |          
                  \  \/   | |  | |   /    \    | | | |  |  | /  /          
                 / \  \   | |__| |  /  /\  \   | |_| |  |  |/  /          
                |  |  |   |  __  | /  /__\  \  |    /   |      \           
                |  |  |   | |  | | |   __   |  |    \   |  |\   \          
                \     /   | |  | | |  |  |  |  | |\  \  |  | \   \       
                 \___/    |_|  |_| |__|  |__|  |_| \__\ |__|  \__/        
                                                                              
                      - O R C A' S   B I G   F R I E N D -                    
                                      &                                       
                       - I N T E G R A L  F E E D E R -                       
                                                                              
 v1 FN, 2020, v2 2021, v3 2022-2024                                           
------------------------------------------------------------------------------


----------------------
SHARK INTEGRAL PACKAGE
----------------------

Number of atoms                             ...     24
Number of basis functions                   ...    587
Number of shells                            ...    221
Maximum angular momentum                    ...      3
Integral batch strategy                     ... SHARK/LIBINT Hybrid
RI-J (if used) integral strategy            ... SPLIT-RIJ (Revised 2003 algorithm where possible)
Printlevel                                  ...      1
Contraction scheme used                     ... SEGMENTED contraction
Prescreening option                         ... SCHWARTZ
   Thresh                                   ... 2.500e-11
   Tcut                                     ... 2.500e-12
   Tpresel                                  ... 2.500e-12 
Coulomb Range Separation                    ... NOT USED
Exchange Range Separation                   ... NOT USED
Multipole approximations                    ... NOT USED
Finite Nucleus Model                        ... NOT USED
CABS basis                                  ... NOT available
Auxiliary Coulomb fitting basis             ... AVAILABLE
   # of basis functions in Aux-J            ...    916
   # of shells in Aux-J                     ...    296
   Maximum angular momentum in Aux-J        ...      4
Auxiliary J/K fitting basis                 ... NOT available
Auxiliary Correlation fitting basis         ... NOT available
Auxiliary 'external' fitting basis          ... NOT available

Checking pre-screening integrals            ... done (  0.0 sec) Dimension = 221
Check shell pair data                       ... done (  0.0 sec)
Shell pair information
Shell pair cut-off parameter TPreSel        ...   2.5e-12
Total number of shell pairs                 ...     24531
Shell pairs after pre-screening             ...     18134
Total number of primitive shell pairs       ...     81843
Primitive shell pairs kept                  ...     39993
          la=0 lb=0:   4014 shell pairs
          la=1 lb=0:   5130 shell pairs
          la=1 lb=1:   1655 shell pairs
          la=2 lb=0:   2641 shell pairs
          la=2 lb=1:   1675 shell pairs
          la=2 lb=2:    443 shell pairs
          la=3 lb=0:   1242 shell pairs
          la=3 lb=1:    810 shell pairs
          la=3 lb=2:    414 shell pairs
          la=3 lb=3:    110 shell pairs

Calculating one electron integrals          ... done (  0.1 sec)
Calculating RI/J V-Matrix + Cholesky decomp.... done (  0.0 sec)
Calculating Nuclear repulsion               ... done (  0.0 sec) ENN=   1433.084984797995 Eh

Diagonalization of the overlap matrix:
Smallest eigenvalue                        ... 9.488e-06
Time for diagonalization                   ...    0.022 sec
Threshold for overlap eigenvalues          ... 1.000e-07
Number of eigenvalues below threshold      ... 0
Time for construction of square roots      ...    0.016 sec
Total time needed                          ...    0.041 sec

-------------------
DFT GRID GENERATION
-------------------

General Integration Accuracy     IntAcc      ... 4.388
Radial Grid Type                 RadialGrid  ... OptM3 with GC (2021)
Angular Grid (max. ang.)         AngularGrid ... 4 (Lebedev-302)
Angular grid pruning method      GridPruning ... 4 (adaptive)
Weight generation scheme         WeightScheme... mBecke (2022)
Basis function cutoff            BFCut       ... 1.0000e-11
Integration weight cutoff        WCut        ... 1.0000e-14
Partially contracted basis set               ... off
Rotationally invariant grid construction     ... off
Angular grids for H and He will be reduced by one unit

Total number of grid points                  ...   128284
Total number of batches                      ...     2017
Average number of points per batch           ...       63
Average number of grid points per atom       ...     5345
Initializing property integral containers    ... done (  0.0 sec)

SHARK setup successfully completed in   1.2 seconds

Maximum memory used throughout the entire STARTUP-calculation: 93.1 MB
-------------------------------------------------------------------------------
                                 ORCA GUESS
                   Start orbitals & Density for SCF / CASSCF
-------------------------------------------------------------------------------

------------
SCF SETTINGS
------------
Hamiltonian:
 Density Functional     Method          .... DFT(GTOs)
 Exchange Functional    Exchange        .... TPSS
 Correlation Functional Correlation     .... TPSS
 LDA part of GGA corr.  LDAOpt          .... PW91-LDA
 Gradients option       PostSCFGGA      .... off
   NL short-range parameter             ....  5.000000
 RI-approximation to the Coulomb term is turned on
   Number of AuxJ basis functions       .... 916


General Settings:
 Integral files         IntName         .... Triclosan\Triclosan_TPSS_def2-TZVP\Triclosan_TPSS_def2-TZVP.orcainp
 Hartree-Fock type      HFTyp           .... RHF
 Total Charge           Charge          ....    0
 Multiplicity           Mult            ....    1
 Number of Electrons    NEL             ....  146
 Basis Dimension        Dim             ....  587
 Nuclear Repulsion      ENuc            ....   1433.0849847980 Eh

Convergence Acceleration:
 AO-DIIS                CNVDIIS         .... on
   Start iteration      DIISMaxIt       ....    12
   Startup error        DIISStart       ....  0.200000
   # of expansion vecs  DIISMaxEq       ....     5
   Bias factor          DIISBfac        ....   1.050
   Max. coefficient     DIISMaxC        ....  10.000
 MO-DIIS                CNVKDIIS        .... off
 Trust-Rad. Augm. Hess. CNVTRAH         .... auto
   Auto Start mean grad. ratio tolernc. ....  1.125000
   Auto Start start iteration           ....    50
   Auto Start num. interpolation iter.  ....    10
   Max. Number of Micro iterations      ....    24
   Max. Number of Macro iterations      .... Maxiter - #DIIS iter
   Number of Davidson start vectors     ....     2
   Converg. threshold    (grad. norm)   ....   1.000e-05
   Grad. Scal. Fac. for Micro threshold ....   0.100
   Minimum threshold for Micro iter.    ....   1.000e-02
   NR start threshold (gradient norm)   ....   1.000e-04
   Initial trust radius                 ....   0.400
   Minimum AH scaling param. (alpha)    ....   1.000
   Maximum AH scaling param. (alpha)    .... 1000.000
   Quad. conv. algorithm                .... NR
   White noise on init. David. guess    .... on
   Maximum white noise                  ....   0.010
   Pseudo random numbers                .... off
   Inactive MOs                         .... canonical
   Orbital update algorithm             .... Taylor
   Preconditioner                       .... Diag
   Full preconditioner red. dimension   ....   250
 SOSCF                  CNVSOSCF        .... on
   Start iteration      SOSCFMaxIt      ....   150
   Startup grad/error   SOSCFStart      ....  0.003300
   Hessian update       SOSCFHessUp     .... L-BFGS
 Level Shifting         CNVShift        .... on
   Level shift para.    LevelShift      ....    0.2500
   Turn off err/grad.   ShiftErr        ....    0.0010
 Zerner damping         CNVZerner       .... off
 Static damping         CNVDamp         .... on
   Fraction old density DampFac         ....    0.7000
   Max. Damping (<1)    DampMax         ....    0.9800
   Min. Damping (>=0)   DampMin         ....    0.0000
   Turn off err/grad.   DampErr         ....    0.1000

SCF Procedure:
 Maximum # iterations   MaxIter         ....   125
 SCF integral mode      SCFMode         .... Direct
   Integral package                     .... SHARK and LIBINT hybrid scheme
 Reset frequency        DirectResetFreq ....    20
 Integral Threshold     Thresh          ....  2.500e-11 Eh
 Primitive CutOff       TCut            ....  2.500e-12 Eh

Convergence Tolerance:
 Convergence Check Mode ConvCheckMode   .... Total+1el-Energy
 Convergence forced     ConvForced      .... 0
 Energy Change          TolE            ....  1.000e-08 Eh
 1-El. energy change                    ....  1.000e-05 Eh
 Orbital Gradient       TolG            ....  1.000e-05
 Orbital Rotation angle TolX            ....  1.000e-05
 DIIS Error             TolErr          ....  5.000e-07

------------------------------
INITIAL GUESS: MODEL POTENTIAL
------------------------------
Loading Hartree-Fock densities                     ... done
Calculating cut-offs                               ... done
Initializing the effective Hamiltonian             ... done
Setting up the integral package (SHARK)            ... done
Starting the Coulomb interaction                   ... done (   0.6 sec)
Making the grid                                    ... done (   0.2 sec)
Mapping shells                                     ... done
Starting the XC term evaluation                    ... done (   0.8 sec)
  promolecular density results
     # of electrons  =    145.990678339
     EX              =   -161.966495037
     EC              =     -5.226448839
     EX+EC           =   -167.192943876
Transforming the Hamiltonian                       ... done (   0.0 sec)
Diagonalizing the Hamiltonian                      ... done (   0.0 sec)
Back transforming the eigenvectors                 ... done (   0.0 sec)
Now organizing SCF variables                       ... done
                      ------------------
                      INITIAL GUESS DONE (   1.7 sec)
                      ------------------
             **** ENERGY FILE WAS UPDATED (Triclosan\Triclosan_TPSS_def2-TZVP\Triclosan_TPSS_def2-TZVP.orcainp.en.tmp) ****
Finished Guess after   1.8 sec
Maximum memory used throughout the entire GUESS-calculation: 68.6 MB

-------------------------------------------------------------------------------------------
                                      ORCA LEAN-SCF
                              memory conserving SCF solver
-------------------------------------------------------------------------------------------

--------------------
CPCM SOLVATION MODEL
--------------------
CPCM parameters:
  Epsilon                                         ...      80.1510
  Refrac                                          ...       1.3328
  Rsolv                                           ...       1.3000
  Surface type                                    ... GAUSSIAN VDW
  Discretization scheme                           ... Constant charge density
    Threshold for H atoms                         ...       5.0000 (charges/Ang^2)
    Threshold for non-H atoms                     ...       5.0000 (charges/Ang^2)
  Epsilon function type                           ...         CPCM
Solvent:                                          ... WATER
Radii:
  Scheme                                          ... Element-dependent radii
  Radius for C  used is    3.8550 Bohr (=   2.0400 Ang.)
  Radius for Cl used is    3.9684 Bohr (=   2.1000 Ang.)
  Radius for O  used is    3.4469 Bohr (=   1.8240 Ang.)
  Radius for H  used is    2.4944 Bohr (=   1.3200 Ang.)
Calculating surface                               ...        done! (  0.0s)
Cavity surface points                             ...         2518
Cavity Volume                                     ...    1981.6541
Cavity Surface-area                               ...    1034.6095
Calculating surface distance matrix               ...        done! (  0.0s)
Performing Cholesky decomposition & store         ...        done! (  0.1s)
Overall time for CPCM initialization              ...                 0.2s

----------------------------------------D-I-I-S--------------------------------------------
Iteration    Energy (Eh)           Delta-E    RMSDP     MaxDP     DIISErr   Damp  Time(sec)
-------------------------------------------------------------------------------------------
               ***  Starting incremental Fock matrix formation  ***
    1    -1992.7137195705461181     0.00e+00  1.54e-03  1.51e-01  2.03e-01  0.700   8.3
    2    -1992.8373810027680975    -1.24e-01  1.45e-03  1.51e-01  7.96e-02  0.700   7.0
                               ***Turning on AO-DIIS***
    3    -1992.8827772796478257    -4.54e-02  6.14e-04  3.89e-02  2.32e-02  0.700   6.9
    4    -1992.9096874255035345    -2.69e-02  1.02e-03  4.80e-02  1.44e-02  0.000   6.5
    5    -1992.9698164261624242    -6.01e-02  4.42e-04  5.17e-02  9.65e-03  0.000   6.6
    6    -1992.9702655437752128    -4.49e-04  1.14e-04  8.64e-03  4.29e-03  0.000   6.1
                              *** Initializing SOSCF ***
---------------------------------------S-O-S-C-F--------------------------------------
Iteration    Energy (Eh)           Delta-E    RMSDP     MaxDP     MaxGrad    Time(sec)
--------------------------------------------------------------------------------------
    7    -1992.9703245179350688    -5.90e-05  4.44e-05  3.66e-03  9.55e-04     5.8
               *** Restarting incremental Fock matrix formation ***
    8    -1992.9703286313913395    -4.11e-06  2.71e-05  2.03e-03  8.55e-05     7.9
    9    -1992.9703284745203291     1.57e-07  7.66e-06  7.76e-04  1.23e-04     5.3
   10    -1992.9703295200399680    -1.05e-06  9.30e-06  6.39e-04  5.23e-05     5.2
   11    -1992.9703294449057012     7.51e-08  2.60e-06  1.81e-04  4.91e-05     5.1
   12    -1992.9703296186169155    -1.74e-07  4.02e-06  3.93e-04  1.68e-05     4.9
   13    -1992.9703296170225713     1.59e-09  1.81e-06  1.53e-04  1.98e-05     4.9
                 **** Energy Check signals convergence ****

               *****************************************************
               *                     SUCCESS                       *
               *           SCF CONVERGED AFTER  13 CYCLES          *
               *****************************************************

             **** ENERGY FILE WAS UPDATED (Triclosan\Triclosan_TPSS_def2-TZVP\Triclosan_TPSS_def2-TZVP.orcainp.en.tmp) ****

----------------
TOTAL SCF ENERGY
----------------

Total Energy       :      -1992.97032961702257 Eh          -54231.47974 eV

Components:
Nuclear Repulsion  :       1433.08498479799505 Eh           38996.22497 eV
Electronic Energy  :      -3426.04355378462515 Eh          -93227.38469 eV
One Electron Energy:      -5587.42486710013964 Eh         -152041.56028 eV
Two Electron Energy:       2161.38131331551449 Eh           58814.17559 eV
CPCM Dielectric    :         -0.01176063039235 Eh              -0.32002 eV

Virial components:
Potential Energy   :      -3980.98775398502721 Eh         -108328.18408 eV
Kinetic Energy     :       1988.01742436800464 Eh           54096.70434 eV
Virial Ratio       :          2.00249137919432

DFT components:
N(Alpha)           :       73.000036969937 electrons
N(Beta)            :       73.000036969937 electrons
N(Total)           :      146.000073939873 electrons
E(X)               :     -164.771340875516 Eh       
E(C)               :       -5.244884221936 Eh       
E(XC)              :     -170.016225097452 Eh       

CPCM Solvation Model Properties:
Surface-charge          :         -0.02623131460754
Corrected charge        :         -0.00000000000000
Outlying charge corr.   :          0.00003846475919 Eh               0.00105 eV
Free-energy (cav+disp)  :  This term is not implemented in the current solvation scheme

---------------
SCF CONVERGENCE
---------------

  Last Energy change         ...   -1.5943e-09  Tolerance :   1.0000e-08
  Last MAX-Density change    ...    1.5308e-04  Tolerance :   1.0000e-07
  Last RMS-Density change    ...    1.8075e-06  Tolerance :   5.0000e-09
  Last DIIS Error            ...    9.5474e-04  Tolerance :   5.0000e-07
  Last Orbital Gradient      ...    1.9784e-05  Tolerance :   1.0000e-05
  Last Orbital Rotation      ...    4.3180e-05  Tolerance :   1.0000e-05


----------------
ORBITAL ENERGIES
----------------

  NO   OCC          E(Eh)            E(eV) 
   0   2.0000    -101.007344     -2748.5496 
   1   2.0000    -101.002915     -2748.4290 
   2   2.0000    -100.999259     -2748.3295 
   3   2.0000     -18.948495      -515.6148 
   4   2.0000     -18.923268      -514.9283 
   5   2.0000     -10.074935      -274.1529 
   6   2.0000     -10.064044      -273.8565 
   7   2.0000     -10.061518      -273.7878 
   8   2.0000     -10.060095      -273.7491 
   9   2.0000     -10.057040      -273.6660 
  10   2.0000     -10.050122      -273.4777 
  11   2.0000     -10.016124      -272.5526 
  12   2.0000     -10.013240      -272.4741 
  13   2.0000     -10.010810      -272.4080 
  14   2.0000     -10.005144      -272.2538 
  15   2.0000     -10.001950      -272.1669 
  16   2.0000      -9.999273      -272.0940 
  17   2.0000      -9.257478      -251.9088 
  18   2.0000      -9.253440      -251.7989 
  19   2.0000      -9.249879      -251.7020 
  20   2.0000      -7.037009      -191.4867 
  21   2.0000      -7.032712      -191.3698 
  22   2.0000      -7.029048      -191.2701 
  23   2.0000      -7.027048      -191.2157 
  24   2.0000      -7.026352      -191.1968 
  25   2.0000      -7.023011      -191.1058 
  26   2.0000      -7.022475      -191.0913 
  27   2.0000      -7.019474      -191.0096 
  28   2.0000      -7.018970      -190.9959 
  29   2.0000      -1.036770       -28.2119 
  30   2.0000      -0.999369       -27.1942 
  31   2.0000      -0.853590       -23.2274 
  32   2.0000      -0.837688       -22.7946 
  33   2.0000      -0.824796       -22.4438 
  34   2.0000      -0.785132       -21.3645 
  35   2.0000      -0.775244       -21.0955 
  36   2.0000      -0.708528       -19.2800 
  37   2.0000      -0.705557       -19.1992 
  38   2.0000      -0.700204       -19.0535 
  39   2.0000      -0.666005       -18.1229 
  40   2.0000      -0.600496       -16.3403 
  41   2.0000      -0.587104       -15.9759 
  42   2.0000      -0.573755       -15.6127 
  43   2.0000      -0.554343       -15.0844 
  44   2.0000      -0.524102       -14.2615 
  45   2.0000      -0.495906       -13.4943 
  46   2.0000      -0.468372       -12.7450 
  47   2.0000      -0.465575       -12.6689 
  48   2.0000      -0.455245       -12.3878 
  49   2.0000      -0.436663       -11.8822 
  50   2.0000      -0.424356       -11.5473 
  51   2.0000      -0.412506       -11.2249 
  52   2.0000      -0.406967       -11.0741 
  53   2.0000      -0.401620       -10.9286 
  54   2.0000      -0.396954       -10.8017 
  55   2.0000      -0.380936       -10.3658 
  56   2.0000      -0.370249       -10.0750 
  57   2.0000      -0.365120        -9.9354 
  58   2.0000      -0.361699        -9.8423 
  59   2.0000      -0.352092        -9.5809 
  60   2.0000      -0.344291        -9.3686 
  61   2.0000      -0.334627        -9.1057 
  62   2.0000      -0.328936        -8.9508 
  63   2.0000      -0.322159        -8.7664 
  64   2.0000      -0.298451        -8.1213 
  65   2.0000      -0.293110        -7.9759 
  66   2.0000      -0.285490        -7.7686 
  67   2.0000      -0.284646        -7.7456 
  68   2.0000      -0.281022        -7.6470 
  69   2.0000      -0.242602        -6.6015 
  70   2.0000      -0.231758        -6.3064 
  71   2.0000      -0.220358        -5.9963 
  72   2.0000      -0.198594        -5.4040 
  73   0.0000      -0.064887        -1.7657 
  74   0.0000      -0.057408        -1.5622 
  75   0.0000      -0.042269        -1.1502 
  76   0.0000      -0.032713        -0.8902 
  77   0.0000      -0.021329        -0.5804 
  78   0.0000      -0.000005        -0.0001 
  79   0.0000       0.016210         0.4411 
  80   0.0000       0.032158         0.8751 
  81   0.0000       0.055100         1.4994 
  82   0.0000       0.062729         1.7069 
  83   0.0000       0.073773         2.0075 
*Only the first 10 virtual orbitals were printed.

                    ********************************
                    * MULLIKEN POPULATION ANALYSIS *
                    ********************************

-----------------------
MULLIKEN ATOMIC CHARGES
-----------------------
   0 C :   -0.186926
   1 C :   -0.195533
   2 C :    0.252452
   3 C :    0.116706
   4 C :   -0.256353
   5 C :    0.179143
   6 Cl:   -0.145125
   7 O :   -0.406073
   8 O :   -0.294749
   9 C :    0.282833
  10 C :    0.017565
  11 C :   -0.191641
  12 C :    0.161861
  13 C :   -0.153779
  14 C :   -0.197194
  15 Cl:   -0.133674
  16 Cl:   -0.116236
  17 H :    0.142667
  18 H :    0.162161
  19 H :    0.137909
  20 H :    0.358528
  21 H :    0.150993
  22 H :    0.149376
  23 H :    0.165090
Sum of atomic charges:    0.0000000

--------------------------------
MULLIKEN REDUCED ORBITAL CHARGES
--------------------------------
  0 C s       :     3.231169  s :     3.231169
      pz      :     1.007462  p :     2.850614
      px      :     0.931514
      py      :     0.911638
      dz2     :     0.005101  d :     0.097161
      dxz     :     0.014514
      dyz     :     0.015034
      dx2y2   :     0.020429
      dxy     :     0.042083
      f0      :     0.001454  f :     0.007981
      f+1     :     0.000712
      f-1     :     0.000727
      f+2     :     0.001273
      f-2     :     0.000273
      f+3     :     0.001865
      f-3     :     0.001676

  1 C s       :     3.255016  s :     3.255016
      pz      :     0.981849  p :     2.840466
      px      :     0.894051
      py      :     0.964566
      dz2     :     0.006143  d :     0.092130
      dxz     :     0.024623
      dyz     :     0.007067
      dx2y2   :     0.029147
      dxy     :     0.025151
      f0      :     0.001448  f :     0.007921
      f+1     :     0.000587
      f-1     :     0.000855
      f+2     :     0.000495
      f-2     :     0.001140
      f+3     :     0.001774
      f-3     :     0.001622

  2 C s       :     3.049514  s :     3.049514
      pz      :     1.044312  p :     2.515666
      px      :     0.622110
      py      :     0.849244
      dz2     :     0.010456  d :     0.167220
      dxz     :     0.040999
      dyz     :     0.022544
      dx2y2   :     0.040134
      dxy     :     0.053087
      f0      :     0.002248  f :     0.015148
      f+1     :     0.001287
      f-1     :     0.000759
      f+2     :     0.002035
      f-2     :     0.001298
      f+3     :     0.003992
      f-3     :     0.003528

  3 C s       :     3.092334  s :     3.092334
      pz      :     0.953860  p :     2.595478
      px      :     0.807807
      py      :     0.833811
      dz2     :     0.007082  d :     0.179702
      dxz     :     0.039217
      dyz     :     0.032189
      dx2y2   :     0.062775
      dxy     :     0.038439
      f0      :     0.002403  f :     0.015781
      f+1     :     0.001026
      f-1     :     0.001015
      f+2     :     0.001194
      f-2     :     0.002564
      f+3     :     0.004299
      f-3     :     0.003281

  4 C s       :     3.322945  s :     3.322945
      pz      :     1.026071  p :     2.840008
      px      :     0.923132
      py      :     0.890805
      dz2     :     0.005130  d :     0.085285
      dxz     :     0.023049
      dyz     :     0.006791
      dx2y2   :     0.030207
      dxy     :     0.020108
      f0      :     0.001504  f :     0.008115
      f+1     :     0.000656
      f-1     :     0.000861
      f+2     :     0.000491
      f-2     :     0.001108
      f+3     :     0.001798
      f-3     :     0.001697

  5 C s       :     3.083033  s :     3.083033
      pz      :     1.010183  p :     2.558275
      px      :     0.725822
      py      :     0.822270
      dz2     :     0.007314  d :     0.168461
      dxz     :     0.029298
      dyz     :     0.027720
      dx2y2   :     0.055322
      dxy     :     0.048807
      f0      :     0.001964  f :     0.011088
      f+1     :     0.001001
      f-1     :     0.000682
      f+2     :     0.001034
      f-2     :     0.001160
      f+3     :     0.002810
      f-3     :     0.002437

  6 Cls       :     5.907385  s :     5.907385
      pz      :     3.912968  p :    11.163890
      px      :     3.329215
      py      :     3.921708
      dz2     :     0.007747  d :     0.067955
      dxz     :     0.021766
      dyz     :     0.002470
      dx2y2   :     0.019887
      dxy     :     0.016086
      f0      :     0.000630  f :     0.005895
      f+1     :     0.001003
      f-1     :     0.000166
      f+2     :     0.000679
      f-2     :     0.000312
      f+3     :     0.001497
      f-3     :     0.001608

  7 O s       :     3.775919  s :     3.775919
      pz      :     1.783055  p :     4.597310
      px      :     1.279388
      py      :     1.534867
      dz2     :     0.003836  d :     0.031145
      dxz     :     0.003219
      dyz     :     0.004865
      dx2y2   :     0.006475
      dxy     :     0.012750
      f0      :     0.000286  f :     0.001698
      f+1     :     0.000333
      f-1     :     0.000194
      f+2     :     0.000052
      f-2     :     0.000209
      f+3     :     0.000164
      f-3     :     0.000461

  8 O s       :     3.782318  s :     3.782318
      pz      :     1.631860  p :     4.469462
      px      :     1.340278
      py      :     1.497324
      dz2     :     0.005588  d :     0.040815
      dxz     :     0.007734
      dyz     :     0.006606
      dx2y2   :     0.012862
      dxy     :     0.008025
      f0      :     0.000284  f :     0.002155
      f+1     :     0.000215
      f-1     :     0.000281
      f+2     :     0.000353
      f-2     :     0.000272
      f+3     :     0.000363
      f-3     :     0.000385

  9 C s       :     3.032732  s :     3.032732
      pz      :     0.823824  p :     2.485899
      px      :     0.970861
      py      :     0.691214
      dz2     :     0.046123  d :     0.183142
      dxz     :     0.031663
      dyz     :     0.037593
      dx2y2   :     0.037708
      dxy     :     0.030055
      f0      :     0.001691  f :     0.015396
      f+1     :     0.001622
      f-1     :     0.003413
      f+2     :     0.002521
      f-2     :     0.002364
      f+3     :     0.002036
      f-3     :     0.001747

 10 C s       :     3.206790  s :     3.206790
      pz      :     0.799714  p :     2.604919
      px      :     0.905331
      py      :     0.899874
      dz2     :     0.037555  d :     0.159685
      dxz     :     0.029118
      dyz     :     0.033301
      dx2y2   :     0.031710
      dxy     :     0.028002
      f0      :     0.001226  f :     0.011041
      f+1     :     0.001636
      f-1     :     0.001955
      f+2     :     0.001483
      f-2     :     0.001905
      f+3     :     0.001556
      f-3     :     0.001281

 11 C s       :     3.275736  s :     3.275736
      pz      :     0.936686  p :     2.809944
      px      :     0.938364
      py      :     0.934893
      dz2     :     0.023032  d :     0.097821
      dxz     :     0.016433
      dyz     :     0.024268
      dx2y2   :     0.013677
      dxy     :     0.020410
      f0      :     0.001334  f :     0.008141
      f+1     :     0.000594
      f-1     :     0.001574
      f+2     :     0.001259
      f-2     :     0.001575
      f+3     :     0.000642
      f-3     :     0.001164

 12 C s       :     3.093322  s :     3.093322
      pz      :     0.860571  p :     2.565842
      px      :     0.904866
      py      :     0.800406
      dz2     :     0.034890  d :     0.167892
      dxz     :     0.030752
      dyz     :     0.036758
      dx2y2   :     0.036714
      dxy     :     0.028777
      f0      :     0.001469  f :     0.011084
      f+1     :     0.001201
      f-1     :     0.001841
      f+2     :     0.001832
      f-2     :     0.001865
      f+3     :     0.001621
      f-3     :     0.001256

 13 C s       :     3.233510  s :     3.233510
      pz      :     0.935674  p :     2.815213
      px      :     0.938960
      py      :     0.940579
      dz2     :     0.020467  d :     0.097085
      dxz     :     0.014737
      dyz     :     0.017612
      dx2y2   :     0.021239
      dxy     :     0.023030
      f0      :     0.000377  f :     0.007970
      f+1     :     0.001218
      f-1     :     0.001536
      f+2     :     0.000890
      f-2     :     0.001371
      f+3     :     0.001422
      f-3     :     0.001156

 14 C s       :     3.270739  s :     3.270739
      pz      :     0.901090  p :     2.827686
      px      :     0.967266
      py      :     0.959330
      dz2     :     0.022339  d :     0.090936
      dxz     :     0.016031
      dyz     :     0.020630
      dx2y2   :     0.011094
      dxy     :     0.020842
      f0      :     0.001319  f :     0.007833
      f+1     :     0.000656
      f-1     :     0.001485
      f+2     :     0.001095
      f-2     :     0.001544
      f+3     :     0.000673
      f-3     :     0.001062

 15 Cls       :     5.909390  s :     5.909390
      pz      :     3.798010  p :    11.151198
      px      :     3.902357
      py      :     3.450830
      dz2     :     0.009793  d :     0.067203
      dxz     :     0.006782
      dyz     :     0.018772
      dx2y2   :     0.017953
      dxy     :     0.013903
      f0      :     0.000620  f :     0.005882
      f+1     :     0.000109
      f-1     :     0.001040
      f+2     :     0.001252
      f-2     :     0.000975
      f+3     :     0.000904
      f-3     :     0.000983

 16 Cls       :     5.915339  s :     5.915339
      pz      :     3.449772  p :    11.128355
      px      :     3.764667
      py      :     3.913917
      dz2     :     0.023441  d :     0.066693
      dxz     :     0.019521
      dyz     :     0.011994
      dx2y2   :     0.004494
      dxy     :     0.007243
      f0      :     0.001233  f :     0.005850
      f+1     :     0.001791
      f-1     :     0.000800
      f+2     :     0.000792
      f-2     :     0.000955
      f+3     :     0.000116
      f-3     :     0.000163

 17 H s       :     0.837275  s :     0.837275
      pz      :     0.004862  p :     0.020059
      px      :     0.007832
      py      :     0.007364

 18 H s       :     0.817589  s :     0.817589
      pz      :     0.004698  p :     0.020250
      px      :     0.003956
      py      :     0.011595

 19 H s       :     0.842117  s :     0.842117
      pz      :     0.004785  p :     0.019974
      px      :     0.003674
      py      :     0.011515

 20 H s       :     0.597833  s :     0.597833
      pz      :     0.014592  p :     0.043639
      px      :     0.017087
      py      :     0.011960

 21 H s       :     0.828938  s :     0.828938
      pz      :     0.004866  p :     0.020069
      px      :     0.008677
      py      :     0.006526

 22 H s       :     0.830694  s :     0.830694
      pz      :     0.009801  p :     0.019930
      px      :     0.005876
      py      :     0.004253

 23 H s       :     0.814653  s :     0.814653
      pz      :     0.005086  p :     0.020257
      px      :     0.008445
      py      :     0.006727



                     *******************************
                     * LOEWDIN POPULATION ANALYSIS *
                     *******************************

----------------------
LOEWDIN ATOMIC CHARGES
----------------------
   0 C :   -0.157152
   1 C :   -0.107266
   2 C :   -0.231038
   3 C :   -0.253185
   4 C :   -0.122139
   5 C :   -0.461397
   6 Cl:    0.397908
   7 O :    0.085900
   8 O :    0.319130
   9 C :   -0.233717
  10 C :   -0.413460
  11 C :   -0.137591
  12 C :   -0.452785
  13 C :   -0.132942
  14 C :   -0.094897
  15 Cl:    0.405608
  16 Cl:    0.414054
  17 H :    0.153837
  18 H :    0.164547
  19 H :    0.159319
  20 H :    0.210288
  21 H :    0.160112
  22 H :    0.158559
  23 H :    0.168307

-------------------------------
LOEWDIN REDUCED ORBITAL CHARGES
-------------------------------
  0 C s       :     2.770572  s :     2.770572
      pz      :     0.918982  p :     2.958277
      px      :     1.025508
      py      :     1.013786
      dz2     :     0.026721  d :     0.385229
      dxz     :     0.045906
      dyz     :     0.050612
      dx2y2   :     0.104233
      dxy     :     0.157757
      f0      :     0.003247  f :     0.043074
      f+1     :     0.003818
      f-1     :     0.004048
      f+2     :     0.008357
      f-2     :     0.001494
      f+3     :     0.011550
      f-3     :     0.010560

  1 C s       :     2.765142  s :     2.765142
      pz      :     0.895919  p :     2.921681
      px      :     1.038956
      py      :     0.986807
      dz2     :     0.026071  d :     0.377482
      dxz     :     0.084213
      dyz     :     0.018734
      dx2y2   :     0.131840
      dxy     :     0.116624
      f0      :     0.003165  f :     0.042961
      f+1     :     0.004464
      f-1     :     0.003331
      f+2     :     0.002865
      f-2     :     0.007660
      f+3     :     0.011282
      f-3     :     0.010193

  2 C s       :     2.711462  s :     2.711462
      pz      :     0.923280  p :     2.782886
      px      :     0.826167
      py      :     1.033439
      dz2     :     0.048280  d :     0.645515
      dxz     :     0.116417
      dyz     :     0.077068
      dx2y2   :     0.220857
      dxy     :     0.182893
      f0      :     0.006376  f :     0.091175
      f+1     :     0.009267
      f-1     :     0.005017
      f+2     :     0.013568
      f-2     :     0.008840
      f+3     :     0.025843
      f-3     :     0.022265

  3 C s       :     2.717285  s :     2.717285
      pz      :     0.878278  p :     2.766315
      px      :     0.940688
      py      :     0.947349
      dz2     :     0.046971  d :     0.675199
      dxz     :     0.112849
      dyz     :     0.110296
      dx2y2   :     0.197135
      dxy     :     0.207949
      f0      :     0.006553  f :     0.094385
      f+1     :     0.006747
      f-1     :     0.007296
      f+2     :     0.007994
      f-2     :     0.017418
      f+3     :     0.027059
      f-3     :     0.021316

  4 C s       :     2.767713  s :     2.767713
      pz      :     0.924893  p :     2.948167
      px      :     1.030898
      py      :     0.992376
      dz2     :     0.027040  d :     0.363265
      dxz     :     0.075731
      dyz     :     0.017265
      dx2y2   :     0.137479
      dxy     :     0.105749
      f0      :     0.003398  f :     0.042994
      f+1     :     0.004599
      f-1     :     0.003444
      f+2     :     0.002791
      f-2     :     0.007424
      f+3     :     0.010947
      f-3     :     0.010392

  5 C s       :     2.781181  s :     2.781181
      pz      :     0.933472  p :     2.979338
      px      :     0.956621
      py      :     1.089245
      dz2     :     0.042822  d :     0.635739
      dxz     :     0.096574
      dyz     :     0.091638
      dx2y2   :     0.211062
      dxy     :     0.193643
      f0      :     0.004383  f :     0.065139
      f+1     :     0.005479
      f-1     :     0.004622
      f+2     :     0.007417
      f-2     :     0.008078
      f+3     :     0.018792
      f-3     :     0.016367

  6 Cls       :     5.535066  s :     5.535066
      pz      :     3.831876  p :    10.944351
      px      :     3.311331
      py      :     3.801144
      dz2     :     0.012394  d :     0.110147
      dxz     :     0.033256
      dyz     :     0.003498
      dx2y2   :     0.032632
      dxy     :     0.028367
      f0      :     0.001406  f :     0.012527
      f+1     :     0.001854
      f-1     :     0.000349
      f+2     :     0.001574
      f-2     :     0.000698
      f+3     :     0.003269
      f-3     :     0.003377

  7 O s       :     3.338129  s :     3.338129
      pz      :     1.679147  p :     4.501078
      px      :     1.277395
      py      :     1.544536
      dz2     :     0.007259  d :     0.070028
      dxz     :     0.009099
      dyz     :     0.008144
      dx2y2   :     0.019654
      dxy     :     0.025872
      f0      :     0.000533  f :     0.004865
      f+1     :     0.000573
      f-1     :     0.000323
      f+2     :     0.000069
      f-2     :     0.000780
      f+3     :     0.000885
      f-3     :     0.001702

  8 O s       :     3.226277  s :     3.226277
      pz      :     1.540834  p :     4.338076
      px      :     1.368751
      py      :     1.428491
      dz2     :     0.013824  d :     0.109813
      dxz     :     0.021552
      dyz     :     0.016013
      dx2y2   :     0.032829
      dxy     :     0.025596
      f0      :     0.000681  f :     0.006704
      f+1     :     0.000544
      f-1     :     0.000844
      f+2     :     0.001287
      f-2     :     0.000696
      f+3     :     0.001287
      f-3     :     0.001364

  9 C s       :     2.720541  s :     2.720541
      pz      :     0.966287  p :     2.772749
      px      :     0.970936
      py      :     0.835526
      dz2     :     0.140956  d :     0.650050
      dxz     :     0.106727
      dyz     :     0.163110
      dx2y2   :     0.134611
      dxy     :     0.104647
      f0      :     0.009491  f :     0.090378
      f+1     :     0.009680
      f-1     :     0.020312
      f+2     :     0.016360
      f-2     :     0.011178
      f+3     :     0.012169
      f-3     :     0.011189

 10 C s       :     2.783364  s :     2.783364
      pz      :     0.942660  p :     2.962623
      px      :     0.989915
      py      :     1.030047
      dz2     :     0.137996  d :     0.605210
      dxz     :     0.125975
      dyz     :     0.126926
      dx2y2   :     0.109724
      dxy     :     0.104589
      f0      :     0.007735  f :     0.062264
      f+1     :     0.009266
      f-1     :     0.011656
      f+2     :     0.009701
      f-2     :     0.008262
      f+3     :     0.009161
      f-3     :     0.006484

 11 C s       :     2.775093  s :     2.775093
      pz      :     1.000551  p :     2.938736
      px      :     0.951783
      py      :     0.986402
      dz2     :     0.088773  d :     0.380445
      dxz     :     0.069800
      dyz     :     0.094181
      dx2y2   :     0.051483
      dxy     :     0.076208
      f0      :     0.006680  f :     0.043317
      f+1     :     0.005361
      f-1     :     0.008407
      f+2     :     0.007256
      f-2     :     0.005894
      f+3     :     0.004323
      f-3     :     0.005395

 12 C s       :     2.781929  s :     2.781929
      pz      :     1.016580  p :     2.977250
      px      :     1.012754
      py      :     0.947916
      dz2     :     0.124764  d :     0.628824
      dxz     :     0.107301
      dyz     :     0.148895
      dx2y2   :     0.133304
      dxy     :     0.114559
      f0      :     0.007762  f :     0.064782
      f+1     :     0.007905
      f-1     :     0.012524
      f+2     :     0.010743
      f-2     :     0.008339
      f+3     :     0.010055
      f-3     :     0.007455

 13 C s       :     2.773071  s :     2.773071
      pz      :     0.963931  p :     2.932432
      px      :     0.959012
      py      :     1.009489
      dz2     :     0.068296  d :     0.384292
      dxz     :     0.063913
      dyz     :     0.075867
      dx2y2   :     0.088051
      dxy     :     0.088166
      f0      :     0.002627  f :     0.043146
      f+1     :     0.005309
      f-1     :     0.008480
      f+2     :     0.006815
      f-2     :     0.006045
      f+3     :     0.008412
      f-3     :     0.005458

 14 C s       :     2.768085  s :     2.768085
      pz      :     0.980631  p :     2.915251
      px      :     0.941675
      py      :     0.992946
      dz2     :     0.092410  d :     0.369351
      dxz     :     0.065675
      dyz     :     0.091238
      dx2y2   :     0.044608
      dxy     :     0.075420
      f0      :     0.006783  f :     0.042210
      f+1     :     0.005371
      f-1     :     0.008869
      f+2     :     0.006632
      f-2     :     0.005349
      f+3     :     0.004369
      f-3     :     0.004836

 15 Cls       :     5.537392  s :     5.537392
      pz      :     3.710953  p :    10.935967
      px      :     3.803416
      py      :     3.421598
      dz2     :     0.016248  d :     0.108594
      dxz     :     0.010319
      dyz     :     0.030708
      dx2y2   :     0.028056
      dxy     :     0.023264
      f0      :     0.001147  f :     0.012439
      f+1     :     0.000245
      f-1     :     0.002522
      f+2     :     0.002473
      f-2     :     0.002034
      f+3     :     0.001941
      f-3     :     0.002076

 16 Cls       :     5.542260  s :     5.542260
      pz      :     3.422018  p :    10.923580
      px      :     3.691146
      py      :     3.810416
      dz2     :     0.036943  d :     0.107690
      dxz     :     0.031500
      dyz     :     0.020569
      dx2y2   :     0.007452
      dxy     :     0.011226
      f0      :     0.002785  f :     0.012416
      f+1     :     0.003456
      f-1     :     0.001749
      f+2     :     0.001788
      f-2     :     0.002001
      f+3     :     0.000284
      f-3     :     0.000353

 17 H s       :     0.786265  s :     0.786265
      pz      :     0.014115  p :     0.059898
      px      :     0.023426
      py      :     0.022357

 18 H s       :     0.775002  s :     0.775002
      pz      :     0.013555  p :     0.060451
      px      :     0.011589
      py      :     0.035307

 19 H s       :     0.780429  s :     0.780429
      pz      :     0.014101  p :     0.060253
      px      :     0.011035
      py      :     0.035116

 20 H s       :     0.640694  s :     0.640694
      pz      :     0.041550  p :     0.149018
      px      :     0.062128
      py      :     0.045341

 21 H s       :     0.779541  s :     0.779541
      pz      :     0.014375  p :     0.060347
      px      :     0.026305
      py      :     0.019667

 22 H s       :     0.781902  s :     0.781902
      pz      :     0.029643  p :     0.059540
      px      :     0.017446
      py      :     0.012450

 23 H s       :     0.771305  s :     0.771305
      pz      :     0.015039  p :     0.060388
      px      :     0.025517
      py      :     0.019833



                      *****************************
                      * MAYER POPULATION ANALYSIS *
                      *****************************

  NA   - Mulliken gross atomic population
  ZA   - Total nuclear charge
  QA   - Mulliken gross atomic charge
  VA   - Mayer's total valence
  BVA  - Mayer's bonded valence
  FA   - Mayer's free valence

  ATOM       NA         ZA         QA         VA         BVA        FA
  0 C      6.1869     6.0000    -0.1869     3.9342     3.9342     0.0000
  1 C      6.1955     6.0000    -0.1955     3.9150     3.9150     0.0000
  2 C      5.7475     6.0000     0.2525     3.6162     3.6162     0.0000
  3 C      5.8833     6.0000     0.1167     4.0959     4.0959    -0.0000
  4 C      6.2564     6.0000    -0.2564     3.9801     3.9801    -0.0000
  5 C      5.8209     6.0000     0.1791     3.7180     3.7180     0.0000
  6 Cl    17.1451    17.0000    -0.1451     1.1770     1.1770     0.0000
  7 O      8.4061     8.0000    -0.4061     2.1052     2.1052     0.0000
  8 O      8.2947     8.0000    -0.2947     2.1313     2.1313     0.0000
  9 C      5.7172     6.0000     0.2828     3.7675     3.7675     0.0000
 10 C      5.9824     6.0000     0.0176     3.8231     3.8231    -0.0000
 11 C      6.1916     6.0000    -0.1916     3.9475     3.9475     0.0000
 12 C      5.8381     6.0000     0.1619     3.7238     3.7238    -0.0000
 13 C      6.1538     6.0000    -0.1538     3.9355     3.9355    -0.0000
 14 C      6.1972     6.0000    -0.1972     3.9768     3.9768    -0.0000
 15 Cl    17.1337    17.0000    -0.1337     1.1881     1.1881     0.0000
 16 Cl    17.1162    17.0000    -0.1162     1.2161     1.2161     0.0000
 17 H      0.8573     1.0000     0.1427     0.9726     0.9726    -0.0000
 18 H      0.8378     1.0000     0.1622     0.9675     0.9675     0.0000
 19 H      0.8621     1.0000     0.1379     0.9888     0.9888    -0.0000
 20 H      0.6415     1.0000     0.3585     0.8918     0.8918     0.0000
 21 H      0.8490     1.0000     0.1510     0.9786     0.9786     0.0000
 22 H      0.8506     1.0000     0.1494     0.9699     0.9699    -0.0000
 23 H      0.8349     1.0000     0.1651     0.9639     0.9639    -0.0000

  Mayer bond orders larger than 0.100000
B(  0-C ,  1-C ) :   1.3911 B(  0-C ,  5-C ) :   1.3338 B(  0-C , 17-H ) :   0.9730 
B(  1-C ,  2-C ) :   1.3263 B(  1-C , 18-H ) :   0.9504 B(  2-C ,  3-C ) :   1.3036 
B(  2-C ,  8-O ) :   0.9077 B(  3-C ,  4-C ) :   1.3698 B(  3-C ,  7-O ) :   1.1754 
B(  4-C ,  5-C ) :   1.3566 B(  4-C , 19-H ) :   0.9849 B(  5-C ,  6-Cl) :   0.9225 
B(  7-O , 20-H ) :   0.8457 B(  8-O ,  9-C ) :   0.9951 B(  9-C , 10-C ) :   1.2809 
B(  9-C , 14-C ) :   1.3638 B( 10-C , 11-C ) :   1.3191 B( 10-C , 16-Cl) :   1.0359 
B( 11-C , 12-C ) :   1.3323 B( 11-C , 21-H ) :   0.9739 B( 12-C , 13-C ) :   1.3259 
B( 12-C , 15-Cl) :   0.9305 B( 13-C , 14-C ) :   1.4037 B( 13-C , 22-H ) :   0.9739 
B( 14-C , 23-H ) :   0.9545 

-------
TIMINGS
-------

Total SCF time: 0 days 0 hours 1 min 20 sec 

Total time                  ....      80.997 sec
Sum of individual times     ....      80.944 sec  ( 99.9%)

SCF preparation             ....       0.242 sec  (  0.3%)
[...]
      pz      :     0.933668  p :     2.955463
      px      :     0.953601
      py      :     1.068193
      dz2     :     0.047224  d :     0.615447
      dxz     :     0.091915
      dyz     :     0.088691
      dx2y2   :     0.188868
      dxy     :     0.198749
      f0      :     0.004293  f :     0.062351
      f+1     :     0.005319
      f-1     :     0.004741
      f+2     :     0.007310
      f-2     :     0.007786
      f+3     :     0.021381
      f-3     :     0.011520

  6 Cls       :     5.562448  s :     5.562448
      pz      :     3.845786  p :    10.968169
      px      :     3.363781
      py      :     3.758602
      dz2     :     0.011662  d :     0.098700
      dxz     :     0.025869
      dyz     :     0.005701
      dx2y2   :     0.026514
      dxy     :     0.028955
      f0      :     0.001178  f :     0.010982
      f+1     :     0.001555
      f-1     :     0.000464
      f+2     :     0.000855
      f-2     :     0.001083
      f+3     :     0.002634
      f-3     :     0.003214

  7 O s       :     3.334295  s :     3.334295
      pz      :     1.682140  p :     4.495874
      px      :     1.259528
      py      :     1.554207
      dz2     :     0.007920  d :     0.070214
      dxz     :     0.010207
      dyz     :     0.005686
      dx2y2   :     0.015789
      dxy     :     0.030611
      f0      :     0.000425  f :     0.004845
      f+1     :     0.000751
      f-1     :     0.000307
      f+2     :     0.000107
      f-2     :     0.000675
      f+3     :     0.001152
      f-3     :     0.001429

  8 O s       :     3.236145  s :     3.236145
      pz      :     1.522900  p :     4.338715
      px      :     1.366560
      py      :     1.449256
      dz2     :     0.016511  d :     0.108215
      dxz     :     0.023705
      dyz     :     0.017829
      dx2y2   :     0.026046
      dxy     :     0.024124
      f0      :     0.000712  f :     0.006469
      f+1     :     0.000623
      f-1     :     0.000846
      f+2     :     0.001259
      f-2     :     0.000910
      f+3     :     0.001093
      f-3     :     0.001025

  9 C s       :     2.719075  s :     2.719075
      pz      :     0.950014  p :     2.768443
      px      :     0.966016
      py      :     0.852414
      dz2     :     0.153004  d :     0.658809
      dxz     :     0.133489
      dyz     :     0.150812
      dx2y2   :     0.124084
      dxy     :     0.097420
      f0      :     0.011710  f :     0.091418
      f+1     :     0.011921
      f-1     :     0.019066
      f+2     :     0.016811
      f-2     :     0.012343
      f+3     :     0.009989
      f-3     :     0.009579

 10 C s       :     2.782927  s :     2.782927
      pz      :     0.945456  p :     2.958566
      px      :     1.004184
      py      :     1.008925
      dz2     :     0.151710  d :     0.596948
      dxz     :     0.143294
      dyz     :     0.112655
      dx2y2   :     0.099106
      dxy     :     0.090184
      f0      :     0.009311  f :     0.061457
      f+1     :     0.010252
      f-1     :     0.010746
      f+2     :     0.009421
      f-2     :     0.008047
      f+3     :     0.007217
      f-3     :     0.006464

 11 C s       :     2.774021  s :     2.774021
      pz      :     1.018892  p :     2.939376
      px      :     0.962028
      py      :     0.958456
      dz2     :     0.105233  d :     0.381012
      dxz     :     0.084848
      dyz     :     0.087695
      dx2y2   :     0.045066
      dxy     :     0.058169
      f0      :     0.007100  f :     0.043673
      f+1     :     0.006589
      f-1     :     0.008795
      f+2     :     0.007473
      f-2     :     0.006141
      f+3     :     0.002696
      f-3     :     0.004878

 12 C s       :     2.785306  s :     2.785306
      pz      :     1.005059  p :     2.967242
      px      :     1.021779
      py      :     0.940404
      dz2     :     0.126677  d :     0.609766
      dxz     :     0.139821
      dyz     :     0.135171
      dx2y2   :     0.107505
      dxy     :     0.100592
      f0      :     0.009427  f :     0.062314
      f+1     :     0.009181
      f-1     :     0.011122
      f+2     :     0.009632
      f-2     :     0.008556
      f+3     :     0.007937
      f-3     :     0.006459

 13 C s       :     2.771618  s :     2.771618
      pz      :     0.978963  p :     2.931914
      px      :     0.982470
      py      :     0.970482
      dz2     :     0.081959  d :     0.385083
      dxz     :     0.083757
      dyz     :     0.055462
      dx2y2   :     0.085686
      dxy     :     0.078220
      f0      :     0.004167  f :     0.043436
      f+1     :     0.006497
      f-1     :     0.006723
      f+2     :     0.007120
      f-2     :     0.006245
      f+3     :     0.006833
      f-3     :     0.005851

 14 C s       :     2.763388  s :     2.763388
      pz      :     1.000184  p :     2.924692
      px      :     0.960664
      py      :     0.963845
      dz2     :     0.108816  d :     0.371486
      dxz     :     0.078341
      dyz     :     0.081764
      dx2y2   :     0.040457
      dxy     :     0.062108
      f0      :     0.007127  f :     0.042879
      f+1     :     0.006546
      f-1     :     0.009072
      f+2     :     0.006991
      f-2     :     0.005830
      f+3     :     0.002670
      f-3     :     0.004643

 15 Cls       :     5.560958  s :     5.560958
      pz      :     3.637558  p :    10.962232
      px      :     3.762209
      py      :     3.562465
      dz2     :     0.017021  d :     0.099937
      dxz     :     0.017255
      dyz     :     0.027200
      dx2y2   :     0.020770
      dxy     :     0.017690
      f0      :     0.001160  f :     0.011142
      f+1     :     0.000840
      f-1     :     0.002113
      f+2     :     0.002030
      f-2     :     0.002597
      f+3     :     0.001231
      f-3     :     0.001171

 16 Cls       :     5.554068  s :     5.554068
      pz      :     3.381188  p :    10.936689
      px      :     3.730999
      py      :     3.824502
      dz2     :     0.037652  d :     0.103296
      dxz     :     0.030142
      dyz     :     0.021876
      dx2y2   :     0.005098
      dxy     :     0.008528
      f0      :     0.003118  f :     0.011754
      f+1     :     0.003506
      f-1     :     0.001870
      f+2     :     0.001351
      f-2     :     0.001544
      f+3     :     0.000154
      f-3     :     0.000211

 17 H s       :     0.784584  s :     0.784584
      pz      :     0.014386  p :     0.060522
      px      :     0.027470
      py      :     0.018666

 18 H s       :     0.775455  s :     0.775455
      pz      :     0.013830  p :     0.059747
      px      :     0.010556
      py      :     0.035362

 19 H s       :     0.779824  s :     0.779824
      pz      :     0.014873  p :     0.060942
      px      :     0.010162
      py      :     0.035907

 20 H s       :     0.639080  s :     0.639080
      pz      :     0.039401  p :     0.149567
      px      :     0.056263
      py      :     0.053902

 21 H s       :     0.778928  s :     0.778928
      pz      :     0.012755  p :     0.060840
      px      :     0.029672
      py      :     0.018413

 22 H s       :     0.781502  s :     0.781502
      pz      :     0.031537  p :     0.060067
      px      :     0.016006
      py      :     0.012524

 23 H s       :     0.771100  s :     0.771100
      pz      :     0.012956  p :     0.061509
      px      :     0.029412
      py      :     0.019140



                      *****************************
                      * MAYER POPULATION ANALYSIS *
                      *****************************

  NA   - Mulliken gross atomic population
  ZA   - Total nuclear charge
  QA   - Mulliken gross atomic charge
  VA   - Mayer's total valence
  BVA  - Mayer's bonded valence
  FA   - Mayer's free valence

  ATOM       NA         ZA         QA         VA         BVA        FA
  0 C      6.1882     6.0000    -0.1882     3.9228     3.9228     0.0000
  1 C      6.1638     6.0000    -0.1638     3.9385     3.9385     0.0000
  2 C      5.8045     6.0000     0.1955     3.5937     3.5937     0.0000
  3 C      5.8409     6.0000     0.1591     4.1210     4.1210     0.0000
  4 C      6.2820     6.0000    -0.2820     3.9922     3.9922     0.0000
  5 C      5.7912     6.0000     0.2088     3.6752     3.6752    -0.0000
  6 Cl    17.1581    17.0000    -0.1581     1.1528     1.1528     0.0000
  7 O      8.3935     8.0000    -0.3935     2.1238     2.1238    -0.0000
  8 O      8.3018     8.0000    -0.3018     2.1270     2.1270    -0.0000
  9 C      5.6763     6.0000     0.3237     3.7249     3.7249     0.0000
 10 C      5.9849     6.0000     0.0151     3.7954     3.7954     0.0000
 11 C      6.1824     6.0000    -0.1824     3.9437     3.9437    -0.0000
 12 C      5.8319     6.0000     0.1681     3.7018     3.7018     0.0000
 13 C      6.1718     6.0000    -0.1718     3.9455     3.9455     0.0000
 14 C      6.2114     6.0000    -0.2114     3.9317     3.9317     0.0000
 15 Cl    17.1517    17.0000    -0.1517     1.1598     1.1598     0.0000
 16 Cl    17.1283    17.0000    -0.1283     1.2000     1.2000     0.0000
 17 H      0.8540     1.0000     0.1460     0.9719     0.9719     0.0000
 18 H      0.8479     1.0000     0.1521     0.9700     0.9700    -0.0000
 19 H      0.8602     1.0000     0.1398     0.9874     0.9874     0.0000
 20 H      0.6427     1.0000     0.3573     0.8956     0.8956    -0.0000
 21 H      0.8484     1.0000     0.1516     0.9788     0.9788    -0.0000
 22 H      0.8505     1.0000     0.1495     0.9711     0.9711     0.0000
 23 H      0.8335     1.0000     0.1665     0.9645     0.9645     0.0000

  Mayer bond orders larger than 0.100000
B(  0-C ,  1-C ) :   1.3710 B(  0-C ,  5-C ) :   1.3315 B(  0-C , 17-H ) :   0.9776 
B(  1-C ,  2-C ) :   1.3609 B(  1-C , 18-H ) :   0.9657 B(  2-C ,  3-C ) :   1.2933 
B(  2-C ,  8-O ) :   0.8411 B(  3-C ,  4-C ) :   1.3578 B(  3-C ,  7-O ) :   1.2079 
B(  4-C ,  5-C ) :   1.3539 B(  4-C , 19-H ) :   0.9849 B(  5-C ,  6-Cl) :   0.9034 
B(  7-O , 20-H ) :   0.8381 B(  8-O ,  9-C ) :   1.0171 B(  9-C , 10-C ) :   1.2525 
B(  9-C , 14-C ) :   1.3544 B( 10-C , 11-C ) :   1.3405 B( 10-C , 16-Cl) :   1.0280 
B( 11-C , 12-C ) :   1.3195 B( 11-C , 21-H ) :   0.9767 B( 12-C , 13-C ) :   1.3373 
B( 12-C , 15-Cl) :   0.9108 B( 13-C , 14-C ) :   1.3890 B( 13-C , 22-H ) :   0.9759 
B( 14-C , 23-H ) :   0.9514 

-------
TIMINGS
-------

Total SCF time: 0 days 0 hours 0 min 40 sec 

Total time                  ....      40.940 sec
Sum of individual times     ....      40.845 sec  ( 99.8%)

SCF preparation             ....       0.251 sec  (  0.6%)
Fock matrix formation       ....      40.042 sec  ( 97.8%)
  Startup                   ....       0.020 sec  (  0.0% of F)
  Split-RI-J                ....       7.378 sec  ( 18.4% of F)
  XC integration            ....      21.890 sec  ( 54.7% of F)
    Basis function eval.    ....       2.921 sec  ( 13.3% of XC)
    Density eval.           ....       9.245 sec  ( 42.2% of XC)
    XC-Functional eval.     ....       0.376 sec  (  1.7% of XC)
    XC-Potential eval.      ....       9.009 sec  ( 41.2% of XC)
  CPCM terms                ....      10.675 sec  ( 26.7% of F)
Diagonalization             ....       0.000 sec  (  0.0%)
Density matrix formation    ....       0.045 sec  (  0.1%)
Total Energy calculation    ....       0.024 sec  (  0.1%)
Population analysis         ....       0.062 sec  (  0.2%)
Orbital Transformation      ....       0.057 sec  (  0.1%)
Orbital Orthonormalization  ....       0.000 sec  (  0.0%)
DIIS solution               ....       0.064 sec  (  0.2%)
SOSCF solution              ....       0.300 sec  (  0.7%)
Finished LeanSCF after  41.0 sec

Maximum memory used throughout the entire LEANSCF-calculation: 109.6 MB

-------------------------   --------------------
FINAL SINGLE POINT ENERGY     -1992.975857823816
-------------------------   --------------------

                                *** OPTIMIZATION RUN DONE ***


------------------------------------------------------------------------------
                              ORCA PROPERTY CALCULATIONS
------------------------------------------------------------------------------

GBWName                                 ... Triclosan\Triclosan_TPSS_def2-TZVP\Triclosan_TPSS_def2-TZVP.orcainp.gbw
Number of atoms                         ...     24
Number of basis functions               ...    587
Max core memory                         ...   1024 MB

Electric properties:
Dipole moment                           ... YES
Quadrupole moment                       ...  NO
Static polarizability (Dipole/Dipole)   ...  NO
Static polarizability (Dipole/Quad.)    ...  NO
Static polarizability (Quad./Quad.)     ...  NO
Static polarizability (Velocity)        ...  NO

Atomic electric properties:
Dipole moment                           ...  NO
Quadrupole moment                       ...  NO
Static polarizability                   ...  NO

Choice of electric origin               ... Center of mass
Position of electric origin             ...     4.646775     3.849723    -1.058195

General magnetic properties:
Magnetizability                         ...  NO

EPR properties:
g-Tensor (aka g-matrix)                 ...  NO
Zero-Field splitting spin-orbit         ...  NO
Zero-field splitting spin-spin          ...  NO
Hyperfine couplings                     ...  NO (   0 nuclei)
Quadrupole couplings                    ...  NO (   0 nuclei)
Contact density                         ...  NO (   0 nuclei)

NMR properties:
Chemical shifts                         ...  NO (   0 nuclei)
Spin-rotation constants                 ...  NO (   0 nuclei)
Spin-spin couplings                     ...  NO (   0 nuclei,    0 pairs)

Choice of magnetic origin               ... GIAO
Position of magnetic origin             ...     0.000000     0.000000     0.000000

Properties with geometric perturbations:
SCF Hessian                             ...  NO
IR spectrum                             ...  NO
VCD spectrum                            ...  NO
X-ray spectroscopy properties:
SCF XES/XAS/RIXS spectra                ...  NO


-------------
DIPOLE MOMENT
-------------

Method             : SCF
Type of density    : Electron Density
Multiplicity       :   1
Irrep              :   0
Energy             : -1992.9758578238156588 Eh
Relativity type    : 
Basis              : AO
                                X                 Y                 Z
Electronic contribution:      4.432432289       3.594077853       0.996138757
Nuclear contribution   :     -4.368107853      -3.140796431      -1.320872798
                        -----------------------------------------
Total Dipole Moment    :      0.064324436       0.453281422      -0.324734041
                        -----------------------------------------
Magnitude (a.u.)       :      0.561296604
Magnitude (Debye)      :      1.426702586



--------------------
Rotational spectrum 
--------------------
 
Rotational constants in cm-1:             0.021739             0.004958             0.004378 
Rotational constants in MHz :           651.733571           148.635979           131.239792 

Dipole components along the rotational axes: 
x,y,z [a.u.] :    -0.398635    -0.384024     0.093111 
x,y,z [Debye]:    -1.013250    -0.976111     0.236670 

 

Dipole moment calculation done in   0.0 sec 

Maximum memory used throughout the entire PROP-calculation: 65.0 MB

--------------------------------
SUGGESTED CITATIONS FOR THIS RUN
--------------------------------

Below you find a list of papers that are relevant to this ORCA run
We neither can nor want to force you to cite these papers, but we appreciate if you do
You receive ORCA, which is the product of decades of hard work by many enthusiastic individuals, for free
The only thing we kindly ask in return is that you cite our papers,
We deeply appreciate it, if you show your appreciation for ORCA by not just citing the generic ORCA reference.

Please note that relegating all ORCA citations to the supporting information does *not* help us.
SI sections are not indexed - citations you put there will not count into any citation statistics
But we need these citations in order to attract the funding resources that allow us to do what we are doing

Therefore, if you are a happy ORCA user, please consider citing a few of the papers listed below in the main body of your paper

In addition to the list printed below, the program has created the file Triclosan\Triclosan_TPSS_def2-TZVP\Triclosan_TPSS_def2-TZVP.orcainp.bibtex that contains the list in bibtex format
You can import this file easily into all common literature databanks and citation aid programs


List of essential papers. We consider these as the minimum necessary citations

  1. Neese,F.
     Software update: the ORCA program system, version 5.0
     WIRES Comput. Molec. Sci., 2022 12(1)e1606
     doi.org/10.1002/wcms.1606

List of papers to cite with high priority. The work reported in these papers was absolutely
necessary for this run to complete.
Our perspective: the developers of density functionals and basis sets usually get cited in chemistry papers
Good! But without the algorithms to do something with them, the functionals or basis sets would not do anything.
Hence, in our opinion, the algorithm design and method developments papers are equally worthy of getting cited

  1. Neese,F.
     An improvement of the resolution of the identity approximation for the formation of the Coulomb matrix
     J. Comp. Chem., 2003 24(14)1740-1747
     doi.org/10.1002/jcc.10318
  2. Garcia-Rates,M.; Neese,F.
     Effect of the Solute Cavity on the Solvation Energy and its Derivatives within the Framework of the Gaussian Charge Scheme
     J. Comput. Chem., 2020 41 922-939
     doi.org/10.1002/jcc.26139
  3. Neese,F.
     The SHARK Integral Generation and Digestion System
     J. Comp. Chem., 2022  1-16
     doi.org/10.1002/jcc.26942

List of suggested additional citations. These are papers that are important in the 'surrounding' of 
of this run, or papers that preceded the highly important papers. If you like your results we are grateful for a citation.

  1. Neese,F.
     The ORCA program system
     WIRES Comput. Molec. Sci., 2012 2(1)73-78
     doi.org/10.1002/wcms.81
  2. Neese,F.
     Software update: the ORCA program system, version 4.0
     WIRES Comput. Molec. Sci., 2018 8(1)1-6
     doi.org/10.1002/wcms.1327
  3. Neese,F.; Wennmohs,F.; Becker,U.; Riplinger,C.
     The ORCA quantum chemistry program package
     J. Chem. Phys., 2020 152 Art. No. L224108
     doi.org/10.1063/5.0004608

List of optional additional citations

  1. Neese,F.
     Approximate second-order SCF convergence for spin unrestricted wavefunctions
     Chem. Phys. Lett., 2000 325(1-3)93-98
     doi.org/10.1016/s0009-2614(00)00662-x

Timings for individual modules:

Sum of individual times          ...     1091.071 sec (=  18.185 min)
Startup calculation              ...       15.725 sec (=   0.262 min)   1.4 %
SCF iterations                   ...      818.008 sec (=  13.633 min)  75.0 %
Property calculations            ...        0.118 sec (=   0.002 min)   0.0 %
SCF Gradient evaluation          ...      257.119 sec (=   4.285 min)  23.6 %
Geometry relaxation              ...        0.101 sec (=   0.002 min)   0.0 %
                             ****ORCA TERMINATED NORMALLY****
TOTAL RUN TIME: 0 days 0 hours 18 minutes 12 seconds 507 msec
