
                                 *****************
                                 * O   R   C   A *
                                 *****************

                                            #,                                       
                                            ###                                      
                                            ####                                     
                                            #####                                    
                                            ######                                   
                                           ########,                                 
                                     ,,################,,,,,                         
                               ,,#################################,,                 
                          ,,##########################################,,             
                       ,#########################################, ''#####,          
                    ,#############################################,,   '####,        
                  ,##################################################,,,,####,       
                ,###########''''           ''''###############################       
              ,#####''   ,,,,##########,,,,          '''####'''          '####       
            ,##' ,,,,###########################,,,                        '##       
           ' ,,###''''                  '''############,,,                           
         ,,##''                                '''############,,,,        ,,,,,,###''
      ,#''                                            '''#######################'''  
     '                                                          ''''####''''         
             ,#######,   #######,   ,#######,      ##                                
            ,#'     '#,  ##    ##  ,#'     '#,    #''#        ,####,   ,####,        
            ##       ##  ##   ,#'  ##            #'  '#       #'       #'  '#        
            ##       ##  #######   ##           ,######,      #####,   #    #        
            '#,     ,#'  ##    ##  '#,     ,#' ,#      #,     #,   #   #,  ,#        
             '#######'   ##     ##  '#######'  #'      '#     '####' # '####'        



                #########################################################
                #                        -***-                          #
                #          Department of theory and spectroscopy        #
                #                                                       #
                #                      Frank Neese                      #
                #                                                       #
                #     Directorship, Architecture, Infrastructure        #
                #                    SHARK, DRIVERS                     #
                #        Core code/Algorithms in most modules           #
                #                                                       #
                #        Max Planck Institute fuer Kohlenforschung      #
                #                Kaiser Wilhelm Platz 1                 #
                #                 D-45470 Muelheim/Ruhr                 #
                #                      Germany                          #
                #                                                       #
                #                  All rights reserved                  #
                #                        -***-                          #
                #########################################################


                         Program Version 6.0.0  -   RELEASE   -


 With contributions from (in alphabetic order):
   Daniel Aravena         : Magnetic Suceptibility
   Michael Atanasov       : Ab Initio Ligand Field Theory (pilot matlab implementation)
   Alexander A. Auer      : GIAO ZORA, VPT2 properties, NMR spectrum
   Ute Becker             : All parallelization in ORCA, NUMFREQ, NUMCALC
   Giovanni Bistoni       : ED, misc. LED, open-shell LED, HFLD
   Martin Brehm           : Molecular dynamics
   Dmytro Bykov           : pre 5.0 version of the SCF Hessian
   Marcos Casanova-Páez   : Triplet and SCS-CIS(D). UHF-(DLPNO)-IP/EA/STEOM-CCSD. UHF-CVS-IP/STEOM-CCSD
   Vijay G. Chilkuri      : MRCI spin determinant printing, contributions to CSF-ICE
   Pauline Colinet        : FMM embedding
   Dipayan Datta          : RHF DLPNO-CCSD density
   Achintya Kumar Dutta   : EOM-CC, STEOM-CC
   Nicolas Foglia         : Exact transition moments, OPA infrastructure, MCD improvements
   Dmitry Ganyushin       : Spin-Orbit,Spin-Spin,Magnetic field MRCI
   Miquel Garcia          : C-PCM and meta-GGA Hessian, CCSD/C-PCM, Gaussian charge scheme
   Tiago L. C. Gouveia    : GS-ROHF, GS-ROCIS
   Yang Guo               : DLPNO-NEVPT2, F12-NEVPT2, CIM, IAO-localization
   Andreas Hansen         : Spin unrestricted coupled pair/coupled cluster methods
   Ingolf Harden          : AUTO-CI MPn and infrastructure 
   Benjamin Helmich-Paris : MC-RPA, TRAH-(SCF,CASSCF), AVAS, COSX integrals, SCF dyn. polar.
   Lee Huntington         : MR-EOM, pCC
   Robert Izsak           : Overlap fitted RIJCOSX, COSX-SCS-MP3, EOM
   Riya Kayal             : Wick's Theorem for AUTO-CI, AUTO-CI UHF-CCSDT
   Emily Kempfer          : AUTO-CI, RHF CISDT and CCSDT
   Christian Kollmar      : KDIIS, OOCD, Brueckner-CCSD(T), CCSD density, CASPT2, CASPT2-K, improved NEVPT2
   Axel Koslowski         : Symmetry handling
   Simone Kossmann        : Meta GGA functionals, TD-DFT gradient, OOMP2, (MP2 Hessian; deprecated post 5.0)
   Lucas Lang             : DCDCAS
   Marvin Lechner         : AUTO-CI (C++ implementation), FIC-MRCC
   Spencer Leger          : CASSCF response
   Dagmar Lenk            : GEPOL surface, SMD, ORCA-2-JSON
   Dimitrios Liakos       : Extrapolation schemes; Compound Job, initial MDCI parallelization
   Dimitrios Manganas     : Further ROCIS development; embedding schemes. LFT, Crystal Embedding
   Dimitrios Pantazis     : SARC Basis sets
   Anastasios Papadopoulos: AUTO-CI, single reference methods and gradients
   Taras Petrenko         : pre 6.0 DFT Hessian and TD-DFT gradient, (ASA, deprecated), ECA, 1-Electron XAS/XES, NRVS
   Peter Pinski           : DLPNO-MP2, DLPNO-MP2 Gradient
   Christoph Reimann      : Effective Core Potentials
   Marius Retegan         : Local ZFS, SOC
   Christoph Riplinger    : Optimizer, TS searches, QM/MM, DLPNO-CCSD(T), (RO)-DLPNO pert. Triples
   Michael Roemelt        : Original ROCIS implementation
   Masaaki Saitow         : Open-shell DLPNO-CCSD energy and density
   Barbara Sandhoefer     : DKH picture change effects
   Kantharuban Sivalingam : CASSCF convergence/infrastructure, NEVPT2 and variants, FIC-MRCI
   Bernardo de Souza      : ESD, SOC TD-DFT
   Georgi Stoychev        : AutoAux, RI-MP2 NMR, DLPNO-MP2 response, X2C
   Van Anh Tran           : RI-MP2 g-tensors
   Willem Van den Heuvel  : Paramagnetic NMR
   Zikuan Wang            : NOTCH, Electric field optimization 
   Frank Wennmohs         : Technical directorship and infrastructure
   Hang Xu                : AUTO-CI-Response properties 


 We gratefully acknowledge several colleagues who have allowed us to
 interface, adapt or use parts of their codes:
   Stefan Grimme, W. Hujo, H. Kruse, P. Pracht,  : VdW corrections, initial TS optimization,
                  C. Bannwarth, S. Ehlert,         DFT functionals, gCP, sTDA/sTD-DF
                  L. Wittmann, M. Mueller
   Ed Valeev, F. Pavosevic, A. Kumar             : LibInt (2-el integral package), F12 methods
   Garnet Chan, S. Sharma, J. Yang, R. Olivares  : DMRG
   Ulf Ekstrom                                   : XCFun DFT Library
   Mihaly Kallay                                 : mrcc  (arbitrary order and MRCC methods)
   Frank Weinhold                                : gennbo (NPA and NBO analysis)
   Simon Mueller                                 : openCOSMO-RS
   Christopher J. Cramer and Donald G. Truhlar   : smd solvation model
   Lars Goerigk                                  : TD-DFT with DH, B97 family of functionals
   V. Asgeirsson, H. Jonsson                     : NEB implementation
   FAccTs GmbH                                   : IRC, NEB, NEB-TS, DLPNO-Multilevel, CI-OPT
                                                   MM, QMMM, 2- and 3-layer-ONIOM, Crystal-QMMM,
                                                   LR-CPCM, SF, NACMEs, symmetry and pop. for TD-DFT,
                                                   nearIR, NL-DFT gradient (VV10), updates on ESD,
                                                   ML-optimized integration grids, MBIS, APM,
                                                   GOAT, DOCKER, SOLVATOR, interface openCOSMO-RS
   S Lehtola, MJT Oliveira, MAL Marques          : LibXC Library
   Liviu Ungur et al                             : ANISO software


 Your calculation uses the libint2 library for the computation of 2-el integrals
 For citations please refer to: http://libint.valeyev.net

 Your ORCA version has been built with support for libXC version: 6.2.2
 For citations please refer to: https://libxc.gitlab.io

 This ORCA versions uses:
   CBLAS   interface :  Fast vector & matrix operations
   LAPACKE interface :  Fast linear algebra routines
   Shared memory     :  Shared parallel matrices


Warning: RI is on but no J-basis has been assigned. Assigning Def2/J (nothing to worry about!)
================================================================================

----- Orbital basis set information -----
Your calculation utilizes the basis: 6-311+G**
   H, Li - Ne  : R. Krishnan, J. S. Binkley, R. Seeger and J. A. Pople, J. Chem. Phys. 72, 650 (1980).
   Na - Ar     : A. D. McLean and G. S. Chandler J. Chem. Phys. 72, 5639, (1980).
   K  - Ca     : J.-P. Blaudeau, M. P. McGrath, L. A. Curtiss and L. Radom, J. Chem. Phys. 107, 5016 (1997).
   Ga - Kr     : L. A. Curtiss, M. P. McGrath, J.-P. Blandeau, N. E. Davis, R. C. Binning and L. Radom, J. Chem. Phys. 103, 6104 (1995).
   Pol./Diff.
   H, Li - Cl  : T. Clark, J. Chandrasekhar and P. v. R. Schleyer, J. Comp. Chem. 4, 294 (1983).
   H - Ne      : M. J. Frisch, J. A. Pople and J. S. Binkley, J. Chem. Phys. 80, 3265 (1984).

----- AuxJ basis set information -----
Your calculation utilizes the auxiliary basis: def2/J
   F. Weigend, Phys. Chem. Chem. Phys. 8, 1057 (2006).

================================================================================
                                        WARNINGS
                       Please study these warnings very carefully!
================================================================================


WARNING: Geometry Optimization
  ===> : Switching off AutoStart
         For restart on a previous wavefunction, please use MOREAD

================================================================================
                                       INPUT FILE
================================================================================
NAME = Diclofenac\Diclofenac_B3LYP_6-311+G\Diclofenac_B3LYP_6-311+G.orcainp
|  1> # ORCA input file
|  2> # 
|  3> !B3LYP 6-311+G** Opt CPCM(WATER)
|  4> * xyz 0 1
|  5>    O        2.14551        -0.60885         0.52181
|  6>    C        2.63420        -1.80737         0.13543
|  7>    O        2.17162        -2.83239         0.62109
|  8>    C        3.65654        -1.73250        -0.95851
|  9>    C        4.96102        -1.03926        -0.61508
| 10>    C        6.12539        -1.84007        -0.61083
| 11>    C        7.39004        -1.27991        -0.47544
| 12>    C        7.51670         0.09058        -0.30438
| 13>    C        6.37165         0.89145        -0.25876
| 14>    C        5.08221         0.35792        -0.43094
| 15>    N        3.94879         1.20390        -0.53378
| 16>    C        3.84026         2.58058        -0.86585
| 17>    C        4.60199         3.19619        -1.88448
| 18>   Cl        5.54000         2.29292        -3.03255
| 19>    C        4.53823         4.57834        -2.11797
| 20>    C        3.67875         5.38423        -1.37796
| 21>    C        2.87476         4.80277        -0.40530
| 22>    C        2.95948         3.42647        -0.14720
| 23>   Cl        1.91108         2.79105         1.07992
| 24>    H        1.46203        -0.84108         1.18918
| 25>    H        3.20949        -1.27698        -1.84977
| 26>    H        3.86501        -2.77055        -1.24335
| 27>    H        6.05372        -2.91564        -0.76619
| 28>    H        8.27654        -1.91040        -0.52459
| 29>    H        8.50112         0.54295        -0.23421
| 30>    H        6.50961         1.96135        -0.11755
| 31>    H        3.12683         0.82883        -0.05232
| 32>    H        5.14146         5.02526        -2.90632
| 33>    H        3.62186         6.44998        -1.58160
| 34>    H        2.17804         5.43109         0.14743
| 35> *
| 36> 
| 37>                          ****END OF INPUT****
================================================================================

                       *****************************
                       * Geometry Optimization Run *
                       *****************************

Geometry optimization settings:
Update method            Update   .... BFGS
Choice of coordinates    CoordSys .... (2022) Redundant Internals
Initial Hessian          InHess   .... Almloef's Model
Max. no of cycles        MaxIter  .... 90

Convergence Tolerances:
Energy Change            TolE     ....  5.0000e-06 Eh
Max. Gradient            TolMAXG  ....  3.0000e-04 Eh/bohr
RMS Gradient             TolRMSG  ....  1.0000e-04 Eh/bohr
Max. Displacement        TolMAXD  ....  4.0000e-03 bohr
RMS Displacement         TolRMSD  ....  2.0000e-03 bohr
Strict Convergence                .... False

------------------------------------------------------------------------------
                        ORCA OPTIMIZATION COORDINATE SETUP
------------------------------------------------------------------------------

The optimization will be done in redundant internal coordinates (2022)
Making redundant internal coordinates   ...  (2022 redundants) done
Evaluating the initial hessian          ...  (Almloef) done
Evaluating the coordinates              ...  done
Calculating the B-matrix                .... done
Calculating the G-matrix                .... done
Diagonalizing the G-matrix              .... done
Small eigenvalue found = 6.908e-03
Small eigenvalue found = 1.854e-02
Small eigenvalue found = 2.219e-02
The first mode is                       ....   66
The number of degrees of freedom        ....   84

    -----------------------------------------------------------------
                    Redundant Internal Coordinates


    -----------------------------------------------------------------
         Definition                    Initial Value    Approx d2E/dq
    -----------------------------------------------------------------
      1. B(C   1,O   0)                  1.3508         0.646364   
      2. B(O   2,C   1)                  1.2250         1.026115   
      3. B(C   3,C   1)                  1.4992         0.418385   
      4. B(C   4,C   3)                  1.5166         0.392368   
      5. B(C   5,C   4)                  1.4132         0.573799   
      6. B(C   6,C   5)                  1.3898         0.625334   
      7. B(C   7,C   6)                  1.3869         0.631906   
      8. B(C   8,C   7)                  1.3981         0.606535   
      9. B(C   9,C   8)                  1.4060         0.589038   
     10. B(C   9,C   4)                  1.4145         0.571096   
     11. B(N  10,C   9)                  1.4181         0.504783   
     12. B(C  11,N  10)                  1.4203         0.500620   
     13. B(C  12,C  11)                  1.4131         0.573990   
     14. B(Cl 13,C  12)                  1.7360         0.393237   
     15. B(C  14,C  12)                  1.4032         0.595260   
     16. B(C  15,C  14)                  1.3913         0.621767   
     17. B(C  16,C  15)                  1.3894         0.626067   
     18. B(C  17,C  16)                  1.4029         0.595982   
     19. B(C  17,C  11)                  1.4170         0.565892   
     20. B(Cl 18,C  17)                  1.7346         0.395366   
     21. B(H  19,O   0)                  0.9831         0.477677   
     22. B(H  20,C   3)                  1.0962         0.351966   
     23. B(H  21,C   3)                  1.0964         0.351704   
     24. B(H  22,C   5)                  1.0891         0.361301   
     25. B(H  23,C   6)                  1.0890         0.361490   
     26. B(H  24,C   7)                  1.0857         0.365895   
     27. B(H  25,C   8)                  1.0880         0.362807   
     28. B(H  26,N  10)                  1.0238         0.411368   
     29. B(H  26,Cl 18)                  2.5711         0.003503   
     30. B(H  26,O   0)                  1.8329         0.021053   
     31. B(H  27,C  14)                  1.0886         0.361914   
     32. B(H  28,C  15)                  1.0865         0.364731   
     33. B(H  29,C  16)                  1.0889         0.361551   
     34. A(C   1,O   0,H  19)          103.6571         0.367383   
     35. A(O   0,C   1,O   2)          119.5010         0.473010   
     36. A(O   0,C   1,C   3)          114.2761         0.405042   
     37. A(O   2,C   1,C   3)          126.0590         0.439894   
     38. A(C   4,C   3,H  20)          110.1775         0.325720   
     39. A(C   4,C   3,H  21)          109.1501         0.325680   
     40. A(C   1,C   3,H  20)          109.6284         0.329185   
     41. A(C   1,C   3,H  21)          105.7803         0.329145   
     42. A(H  20,C   3,H  21)          105.0544         0.288729   
     43. A(C   1,C   3,C   4)          116.3682         0.373621   
     44. A(C   5,C   4,C   9)          119.2593         0.421823   
     45. A(C   3,C   4,C   9)          123.6885         0.394389   
     46. A(C   3,C   4,C   5)          116.7654         0.394715   
     47. A(C   4,C   5,C   6)          121.4430         0.428729   
     48. A(C   6,C   5,H  22)          118.1535         0.353621   
     49. A(C   4,C   5,H  22)          120.3305         0.348519   
     50. A(C   5,C   6,C   7)          119.5646         0.436227   
     51. A(C   5,C   6,H  23)          120.2008         0.353652   
     52. A(C   7,C   6,H  23)          120.2219         0.354279   
     53. A(C   8,C   7,H  24)          120.1224         0.352551   
     54. A(C   6,C   7,H  24)          120.1671         0.355007   
     55. A(C   6,C   7,C   8)          119.6882         0.433837   
     56. A(C   7,C   8,C   9)          121.9876         0.428397   
     57. A(C   9,C   8,H  25)          120.3539         0.350309   
     58. A(C   7,C   8,H  25)          117.6266         0.352046   
     59. A(C   8,C   9,N  10)          121.0307         0.411901   
     60. A(C   4,C   9,N  10)          120.7547         0.409648   
     61. A(C   4,C   9,C   8)          117.9911         0.423804   
     62. A(C   9,N  10,C  11)          131.0165         0.397669   
     63. A(C   9,N  10,H  26)          112.8955         0.343478   
     64. A(C  11,N  10,H  26)          113.8103         0.343001   
     65. A(C  12,C  11,C  17)          116.1425         0.421160   
     66. A(N  10,C  11,C  17)          120.5012         0.408385   
     67. A(N  10,C  11,C  12)          123.3403         0.409414   
     68. A(Cl 13,C  12,C  14)          115.2783         0.415213   
     69. A(C  11,C  12,C  14)          121.6396         0.424985   
     70. A(C  11,C  12,Cl 13)          122.7723         0.412537   
     71. A(C  15,C  14,H  27)          119.3193         0.353380   
     72. A(C  12,C  14,H  27)          119.9803         0.350785   
     73. A(C  12,C  14,C  15)          120.6711         0.431121   
     74. A(C  16,C  15,H  28)          120.7563         0.354257   
     75. A(C  14,C  15,H  28)          120.0537         0.353844   
     76. A(C  14,C  15,C  16)          119.1689         0.435050   
     77. A(C  15,C  16,H  29)          118.9535         0.353732   
     78. A(C  15,C  16,C  17)          120.2923         0.431749   
     79. A(C  17,C  16,H  29)          120.7537         0.350798   
     80. A(C  16,C  17,Cl 18)          116.9396         0.415701   
     81. A(C  11,C  17,Cl 18)          121.0523         0.411893   
     82. A(C  11,C  17,C  16)          121.9991         0.423998   
     83. D(C   3,C   1,O   0,H  19)    176.5486         0.034062   
     84. D(O   2,C   1,O   0,H  19)      0.9229         0.034062   
     85. D(C   4,C   3,C   1,O   0)     65.2629         0.012947   
     86. D(H  21,C   3,C   1,O   0)   -173.3670         0.012947   
     87. D(H  20,C   3,C   1,O   2)    114.7124         0.012947   
     88. D(H  20,C   3,C   1,O   0)    -60.5774         0.012947   
     89. D(C   4,C   3,C   1,O   2)   -119.4473         0.012947   
     90. D(C   5,C   4,C   3,H  21)     -5.0968         0.011447   
     91. D(C   9,C   4,C   3,H  20)     53.8239         0.011447   
     92. D(C   9,C   4,C   3,C   1)    -71.7397         0.011447   
     93. D(C   5,C   4,C   3,H  20)   -119.9655         0.011447   
     94. D(C   5,C   4,C   3,C   1)    114.4708         0.011447   
     95. D(H  22,C   5,C   4,C   3)     -4.9864         0.022598   
     96. D(C   6,C   5,C   4,C   3)    171.8490         0.022598   
     97. D(C   6,C   5,C   4,C   9)     -2.2288         0.022598   
     98. D(H  22,C   5,C   4,C   9)   -179.0642         0.022598   
     99. D(H  23,C   6,C   5,H  22)     -0.0425         0.027088   
    100. D(H  23,C   6,C   5,C   4)   -176.9446         0.027088   
    101. D(C   7,C   6,C   5,H  22)    178.6624         0.027088   
    102. D(C   7,C   6,C   5,C   4)      1.7603         0.027088   
    103. D(H  24,C   7,C   6,H  23)      0.9552         0.027697   
    104. D(H  24,C   7,C   6,C   5)   -177.7494         0.027697   
    105. D(C   8,C   7,C   6,H  23)    179.2409         0.027697   
    106. D(C   8,C   7,C   6,C   5)      0.5362         0.027697   
    107. D(H  25,C   8,C   7,H  24)     -2.0630         0.025391   
    108. D(H  25,C   8,C   7,C   6)    179.6506         0.025391   
    109. D(C   9,C   8,C   7,H  24)    175.8886         0.025391   
    110. D(C   9,C   8,C   7,C   6)     -2.3979         0.025391   
    111. D(N  10,C   9,C   4,C   3)      1.3796         0.022377   
    112. D(C   8,C   9,C   4,C   5)      0.3996         0.022377   
    113. D(C   8,C   9,C   4,C   3)   -173.2438         0.022377   
    114. D(N  10,C   9,C   8,H  25)      5.1811         0.023873   
    115. D(N  10,C   9,C   8,C   7)   -172.7157         0.023873   
    116. D(C   4,C   9,C   8,H  25)    179.7889         0.023873   
    117. D(C   4,C   9,C   8,C   7)      1.8922         0.023873   
    118. D(N  10,C   9,C   4,C   5)    175.0230         0.022377   
    119. D(H  26,N  10,C   9,C   8)   -141.4292         0.020157   
    120. D(H  26,N  10,C   9,C   4)     44.1118         0.020157   
    121. D(C  11,N  10,C   9,C   8)     20.0388         0.020157   
    122. D(C  11,N  10,C   9,C   4)   -154.4202         0.020157   
    123. D(C  17,C  11,N  10,H  26)     23.3394         0.019815   
    124. D(C  17,C  11,N  10,C   9)   -137.9957         0.019815   
    125. D(C  12,C  11,N  10,H  26)   -158.1729         0.019815   
    126. D(C  12,C  11,N  10,C   9)     40.4920         0.019815   
    127. D(C  14,C  12,C  11,C  17)      3.2903         0.022614   
    128. D(C  14,C  12,C  11,N  10)   -175.2582         0.022614   
    129. D(Cl 13,C  12,C  11,C  17)   -170.0142         0.022614   
    130. D(Cl 13,C  12,C  11,N  10)     11.4373         0.022614   
    131. D(H  27,C  14,C  12,Cl 13)     -6.5896         0.024406   
    132. D(H  27,C  14,C  12,C  11)    179.6345         0.024406   
    133. D(C  15,C  14,C  12,Cl 13)    171.4297         0.024406   
    134. D(C  15,C  14,C  12,C  11)     -2.3462         0.024406   
    135. D(H  28,C  15,C  14,H  27)     -0.6550         0.026761   
    136. D(H  28,C  15,C  14,C  12)   -178.6872         0.026761   
    137. D(C  16,C  15,C  14,H  27)    177.6875         0.026761   
    138. D(C  16,C  15,C  14,C  12)     -0.3448         0.026761   
    139. D(H  29,C  16,C  15,H  28)      0.4728         0.027155   
    140. D(H  29,C  16,C  15,C  14)   -177.8577         0.027155   
    141. D(C  17,C  16,C  15,H  28)   -179.7816         0.027155   
    142. D(C  17,C  16,C  15,C  14)      1.8879         0.027155   
    143. D(Cl 18,C  17,C  11,N  10)     -4.2697         0.021954   
    144. D(C  16,C  17,C  11,C  12)     -1.7328         0.021954   
    145. D(C  16,C  17,C  11,N  10)    176.8599         0.021954   
    146. D(Cl 18,C  17,C  16,H  29)      0.0062         0.024469   
    147. D(Cl 18,C  17,C  16,C  15)   -179.7348         0.024469   
    148. D(C  11,C  17,C  16,H  29)    178.9207         0.024469   
    149. D(C  11,C  17,C  16,C  15)     -0.8203         0.024469   
    150. D(Cl 18,C  17,C  11,C  12)    177.1377         0.021954   
    -----------------------------------------------------------------

Number of atoms                         .... 30
Number of degrees of freedom            .... 150


         *************************************************************
         *                GEOMETRY OPTIMIZATION CYCLE   1            *
         *************************************************************
---------------------------------
CARTESIAN COORDINATES (ANGSTROEM)
---------------------------------
  O      2.145510   -0.608850    0.521810
  C      2.634200   -1.807370    0.135430
  O      2.171620   -2.832390    0.621090
  C      3.656540   -1.732500   -0.958510
  C      4.961020   -1.039260   -0.615080
  C      6.125390   -1.840070   -0.610830
  C      7.390040   -1.279910   -0.475440
  C      7.516700    0.090580   -0.304380
  C      6.371650    0.891450   -0.258760
  C      5.082210    0.357920   -0.430940
  N      3.948790    1.203900   -0.533780
  C      3.840260    2.580580   -0.865850
  C      4.601990    3.196190   -1.884480
  Cl     5.540000    2.292920   -3.032550
  C      4.538230    4.578340   -2.117970
  C      3.678750    5.384230   -1.377960
  C      2.874760    4.802770   -0.405300
  C      2.959480    3.426470   -0.147200
  Cl     1.911080    2.791050    1.079920
  H      1.462030   -0.841080    1.189180
  H      3.209490   -1.276980   -1.849770
  H      3.865010   -2.770550   -1.243350
  H      6.053720   -2.915640   -0.766190
  H      8.276540   -1.910400   -0.524590
  H      8.501120    0.542950   -0.234210
  H      6.509610    1.961350   -0.117550
  H      3.126830    0.828830   -0.052320
  H      5.141460    5.025260   -2.906320
  H      3.621860    6.449980   -1.581600
  H      2.178040    5.431090    0.147430

----------------------------
CARTESIAN COORDINATES (A.U.)
----------------------------
  NO LB      ZA    FRAG     MASS         X           Y           Z
   0 O     8.0000    0    15.999    4.054426   -1.150560    0.986078
   1 C     6.0000    0    12.011    4.977917   -3.415434    0.255926
   2 O     8.0000    0    15.999    4.103767   -5.352441    1.173690
   3 C     6.0000    0    12.011    6.909859   -3.273951   -1.811321
   4 C     6.0000    0    12.011    9.374969   -1.963917   -1.162333
   5 C     6.0000    0    12.011   11.575310   -3.477228   -1.154301
   6 C     6.0000    0    12.011   13.965152   -2.418679   -0.898451
   7 C     6.0000    0    12.011   14.204504    0.171171   -0.575195
   8 C     6.0000    0    12.011   12.040674    1.684596   -0.488986
   9 C     6.0000    0    12.011    9.603985    0.676371   -0.814359
  10 N     7.0000    0    14.007    7.462132    2.275041   -1.008698
  11 C     6.0000    0    12.011    7.257040    4.876589   -1.636219
  12 C     6.0000    0    12.011    8.696501    6.039924   -3.561151
  13 Cl   17.0000    0    35.453   10.469083    4.332991   -5.730689
  14 C     6.0000    0    12.011    8.576012    8.651809   -4.002383
  15 C     6.0000    0    12.011    6.951830   10.174720   -2.603967
  16 C     6.0000    0    12.011    5.432509    9.075920   -0.765906
  17 C     6.0000    0    12.011    5.592607    6.475090   -0.278168
  18 Cl   17.0000    0    35.453    3.611418    5.274320    2.040753
  19 H     1.0000    0     1.008    2.762836   -1.589411    2.247225
  20 H     1.0000    0     1.008    6.065057   -2.413142   -3.495559
  21 H     1.0000    0     1.008    7.303810   -5.235581   -2.349591
  22 H     1.0000    0     1.008   11.439873   -5.509761   -1.447889
  23 H     1.0000    0     1.008   15.640394   -3.610133   -0.991331
  24 H     1.0000    0     1.008   16.064789    1.026027   -0.442593
  25 H     1.0000    0     1.008   12.301380    3.706414   -0.222137
  26 H     1.0000    0     1.008    5.908852    1.566262   -0.098870
  27 H     1.0000    0     1.008    9.715951    9.496365   -5.492149
  28 H     1.0000    0     1.008    6.844323   12.188696   -2.988791
  29 H     1.0000    0     1.008    4.115899   10.263273    0.278602

--------------------------------
INTERNAL COORDINATES (ANGSTROEM)
--------------------------------
 O      0   0   0     0.000000000000     0.00000000     0.00000000
 C      1   0   0     1.350761863135     0.00000000     0.00000000
 O      2   1   0     1.224953832763   119.50099921     0.00000000
 C      2   1   3     1.499162871772   114.27607165   175.62566684
 C      4   2   1     1.516639025246   116.36824362    65.26289689
 C      5   4   2     1.413178055130   116.76544831   114.47081137
 C      6   5   4     1.389765915613   121.44301390   171.84896295
 C      7   6   5     1.386920011861   119.56458827     1.76033960
 C      8   7   6     1.398074906362   119.68818776     0.53623487
 C      9   8   7     1.406042576489   121.98762606   357.60214534
 N     10   9   8     1.418061748444   121.03074786   187.28429275
 C     11  10   9     1.420315833961   131.01652389    20.03882677
 C     12  11  10     1.413087167127   123.34026421    40.49199975
 Cl    13  12  11     1.736036917205   122.77232188    11.43732800
 C     13  12  11     1.403182646771   121.63963324   184.74177848
 C     15  13  12     1.391322882224   120.67111472   357.65378048
 C     16  15  13     1.389447058113   119.16887824   359.65524444
 C     17  16  15     1.402852372276   120.29227762     1.88789425
 Cl    18  17  16     1.734567563054   116.93959268   180.26518852
 H      1   2   3     0.983086161127   103.65714607     0.92291366
 H      4   2   1     1.096219211882   109.62841757   299.42262521
 H      4   2   1     1.096422076118   105.78026083   186.63303730
 H      6   5   4     1.089093266621   120.33047974   355.01358530
 H      7   6   5     1.088951611689   120.20079991   183.05541286
 H      8   7   6     1.085654264580   120.16713801   182.25059477
 H      9   8   7     1.087961045121   117.62656071   179.65060092
 H     11  10   9     1.023767296850   112.89546782   218.57077884
 H     15  13  12     1.088632004766   119.98032175   179.63447267
 H     16  15  13     1.086521414515   120.05368758   181.31275087
 H     17  16  15     1.088905521016   118.95349634   182.14227013

---------------------------
INTERNAL COORDINATES (A.U.)
---------------------------
 O      0   0   0     0.000000000000     0.00000000     0.00000000
 C      1   0   0     2.552569993470     0.00000000     0.00000000
 O      2   1   0     2.314827270619   119.50099921     0.00000000
 C      2   1   3     2.833007257792   114.27607165   175.62566684
 C      4   2   1     2.866032401733   116.36824362    65.26289689
 C      5   4   2     2.670519502662   116.76544831   114.47081137
 C      6   5   4     2.626276970767   121.44301390   171.84896295
 C      7   6   5     2.620898992072   119.56458827     1.76033960
 C      8   7   6     2.641978687732   119.68818776     0.53623487
 C      9   8   7     2.657035402197   121.98762606   357.60214534
 N     10   9   8     2.679748345549   121.03074786   187.28429275
 C     11  10   9     2.684007949858   131.01652389    20.03882677
 C     12  11  10     2.670347749229   123.34026421    40.49199975
 Cl    13  12  11     3.280634331895   122.77232188    11.43732800
 C     13  12  11     2.651630918268   121.63963324   184.74177848
 C     15  13  12     2.629219211261   120.67111472   357.65378048
 C     16  15  13     2.625674417417   119.16887824   359.65524444
 C     17  16  15     2.651006789923   120.29227762     1.88789425
 Cl    18  17  16     3.277857654956   116.93959268   180.26518852
 H      1   2   3     1.857763610579   103.65714607     0.92291366
 H      4   2   1     2.071554093201   109.62841757   299.42262521
 H      4   2   1     2.071937451049   105.78026083   186.63303730
 H      6   5   4     2.058088008212   120.33047974   355.01358530
 H      7   6   5     2.057820319184   120.20079991   183.05541286
 H      8   7   6     2.051589236179   120.16713801   182.25059477
 H      9   8   7     2.055948419653   117.62656071   179.65060092
 H     11  10   9     1.934639815912   112.89546782   218.57077884
 H     15  13  12     2.057216349629   119.98032175   179.63447267
 H     16  15  13     2.053227912074   120.05368758   181.31275087
 H     17  16  15     2.057733220436   118.95349634   182.14227013

---------------------
BASIS SET INFORMATION
---------------------
There are 5 groups of distinct atoms

 Group   1 Type O   : 12s6p1d contracted to 5s4p1d pattern {63111/3111/1}
 Group   2 Type C   : 12s6p1d contracted to 5s4p1d pattern {63111/3111/1}
 Group   3 Type N   : 12s6p1d contracted to 5s4p1d pattern {63111/3111/1}
 Group   4 Type Cl  : 14s11p1d contracted to 7s6p1d pattern {6311111/521111/1}
 Group   5 Type H   : 5s1p contracted to 3s1p pattern {311/1}

Atom   0O    basis set group =>   1
Atom   1C    basis set group =>   2
Atom   2O    basis set group =>   1
Atom   3C    basis set group =>   2
Atom   4C    basis set group =>   2
Atom   5C    basis set group =>   2
Atom   6C    basis set group =>   2
Atom   7C    basis set group =>   2
Atom   8C    basis set group =>   2
Atom   9C    basis set group =>   2
Atom  10N    basis set group =>   3
Atom  11C    basis set group =>   2
Atom  12C    basis set group =>   2
Atom  13Cl   basis set group =>   4
Atom  14C    basis set group =>   2
Atom  15C    basis set group =>   2
Atom  16C    basis set group =>   2
Atom  17C    basis set group =>   2
Atom  18Cl   basis set group =>   4
Atom  19H    basis set group =>   5
Atom  20H    basis set group =>   5
Atom  21H    basis set group =>   5
Atom  22H    basis set group =>   5
Atom  23H    basis set group =>   5
Atom  24H    basis set group =>   5
Atom  25H    basis set group =>   5
Atom  26H    basis set group =>   5
Atom  27H    basis set group =>   5
Atom  28H    basis set group =>   5
Atom  29H    basis set group =>   5
---------------------------------
AUXILIARY/J BASIS SET INFORMATION
---------------------------------
There are 5 groups of distinct atoms

 Group   1 Type O   : 12s5p4d2f1g contracted to 6s4p3d1f1g pattern {711111/2111/211/2/1}
 Group   2 Type C   : 12s5p4d2f1g contracted to 6s4p3d1f1g pattern {711111/2111/211/2/1}
 Group   3 Type N   : 12s5p4d2f1g contracted to 6s4p3d1f1g pattern {711111/2111/211/2/1}
 Group   4 Type Cl  : 14s5p5d2f1g contracted to 8s4p3d1f1g pattern {71111111/2111/311/2/1}
 Group   5 Type H   : 5s2p1d contracted to 3s1p1d pattern {311/2/1}

Atom   0O    basis set group =>   1
Atom   1C    basis set group =>   2
Atom   2O    basis set group =>   1
Atom   3C    basis set group =>   2
Atom   4C    basis set group =>   2
Atom   5C    basis set group =>   2
Atom   6C    basis set group =>   2
Atom   7C    basis set group =>   2
Atom   8C    basis set group =>   2
Atom   9C    basis set group =>   2
Atom  10N    basis set group =>   3
Atom  11C    basis set group =>   2
Atom  12C    basis set group =>   2
Atom  13Cl   basis set group =>   4
Atom  14C    basis set group =>   2
Atom  15C    basis set group =>   2
Atom  16C    basis set group =>   2
Atom  17C    basis set group =>   2
Atom  18Cl   basis set group =>   4
Atom  19H    basis set group =>   5
Atom  20H    basis set group =>   5
Atom  21H    basis set group =>   5
Atom  22H    basis set group =>   5
Atom  23H    basis set group =>   5
Atom  24H    basis set group =>   5
Atom  25H    basis set group =>   5
Atom  26H    basis set group =>   5
Atom  27H    basis set group =>   5
Atom  28H    basis set group =>   5
Atom  29H    basis set group =>   5
------------------------------------------------------------------------------
                             ORCA STARTUP CALCULATIONS
                           -- RI-GTO INTEGRALS CHOSEN --
------------------------------------------------------------------------------
------------------------------------------------------------------------------
                   ___                                                        
                  /   \      - P O W E R E D   B Y -                         
                 /     \                                                     
                 |  |  |   _    _      __       _____    __    __             
                 |  |  |  | |  | |    /  \     |  _  \  |  |  /  |          
                  \  \/   | |  | |   /    \    | | | |  |  | /  /          
                 / \  \   | |__| |  /  /\  \   | |_| |  |  |/  /          
                |  |  |   |  __  | /  /__\  \  |    /   |      \           
                |  |  |   | |  | | |   __   |  |    \   |  |\   \          
                \     /   | |  | | |  |  |  |  | |\  \  |  | \   \       
                 \___/    |_|  |_| |__|  |__|  |_| \__\ |__|  \__/        
                                                                              
                      - O R C A' S   B I G   F R I E N D -                    
                                      &                                       
                       - I N T E G R A L  F E E D E R -                       
                                                                              
 v1 FN, 2020, v2 2021, v3 2022-2024                                           
------------------------------------------------------------------------------


----------------------
SHARK INTEGRAL PACKAGE
----------------------

Number of atoms                             ...     30
Number of basis functions                   ...    500
Number of shells                            ...    242
Maximum angular momentum                    ...      2
Integral batch strategy                     ... SHARK/LIBINT Hybrid
RI-J (if used) integral strategy            ... SPLIT-RIJ (Revised 2003 algorithm where possible)
Printlevel                                  ...      1
Contraction scheme used                     ... SEGMENTED contraction
Prescreening option                         ... SCHWARTZ
   Thresh                                   ... 2.500e-11
   Tcut                                     ... 2.500e-12
   Tpresel                                  ... 2.500e-12 
Coulomb Range Separation                    ... NOT USED
Exchange Range Separation                   ... NOT USED
Multipole approximations                    ... NOT USED
Finite Nucleus Model                        ... NOT USED
CABS basis                                  ... NOT available
Auxiliary Coulomb fitting basis             ... AVAILABLE
   # of basis functions in Aux-J            ...   1056
   # of shells in Aux-J                     ...    344
   Maximum angular momentum in Aux-J        ...      4
Auxiliary J/K fitting basis                 ... NOT available
Auxiliary Correlation fitting basis         ... NOT available
Auxiliary 'external' fitting basis          ... NOT available

Checking pre-screening integrals            ... done (  0.0 sec) Dimension = 242
Check shell pair data                       ... done (  0.0 sec)
Shell pair information
Shell pair cut-off parameter TPreSel        ...   2.5e-12
Total number of shell pairs                 ...     29403
Shell pairs after pre-screening             ...     22973
Total number of primitive shell pairs       ...     97909
Primitive shell pairs kept                  ...     50884
          la=0 lb=0:   6598 shell pairs
          la=1 lb=0:   9585 shell pairs
          la=1 lb=1:   3506 shell pairs
          la=2 lb=0:   1796 shell pairs
          la=2 lb=1:   1346 shell pairs
          la=2 lb=2:    142 shell pairs

Calculating one electron integrals          ... done (  0.1 sec)
Calculating RI/J V-Matrix + Cholesky decomp.... done (  0.0 sec)
Calculating Nuclear repulsion               ... done (  0.0 sec) ENN=   1642.820556829939 Eh

Diagonalization of the overlap matrix:
Smallest eigenvalue                        ... 5.256e-07
Time for diagonalization                   ...    0.015 sec
Threshold for overlap eigenvalues          ... 1.000e-07
Number of eigenvalues below threshold      ... 0

IMPORTANT:
Smallest eigenvalue of S below the DiffSThresh (1.000e-06) while
Thresh>1e-12 and/or TCut>1e-13! In order to avoid SCF convergence issues,
Thresh will be set to at least 1e-12 and TCut to at least 1e-13.
This can be turned off by adding %SCF DiffSThresh -1 END to the input.

Time for construction of square roots      ...    0.011 sec
Total time needed                          ...    0.027 sec

-------------------
DFT GRID GENERATION
-------------------

General Integration Accuracy     IntAcc      ... 4.388
Radial Grid Type                 RadialGrid  ... OptM3 with GC (2021)
Angular Grid (max. ang.)         AngularGrid ... 4 (Lebedev-302)
Angular grid pruning method      GridPruning ... 4 (adaptive)
Weight generation scheme         WeightScheme... mBecke (2022)
Basis function cutoff            BFCut       ... 1.0000e-11
Integration weight cutoff        WCut        ... 1.0000e-14
Partially contracted basis set               ... off
Rotationally invariant grid construction     ... off
Angular grids for H and He will be reduced by one unit
Diffuse basis detected: some atoms will have their outermost
                        angular grid increased by 1.

Total number of grid points                  ...   156120
Total number of batches                      ...     2456
Average number of points per batch           ...       63
Average number of grid points per atom       ...     5204

--------------------
COSX GRID GENERATION
--------------------

GRIDX 1
-------
General Integration Accuracy     IntAcc      ... 3.816
Radial Grid Type                 RadialGrid  ... OptM3 with GC (2021)
Angular Grid (max. ang.)         AngularGrid ... 1 (Lebedev-50)
Angular grid pruning method      GridPruning ... 4 (adaptive)
Weight generation scheme         WeightScheme... mBecke (2022)
Basis function cutoff            BFCut       ... 1.0000e-11
Integration weight cutoff        WCut        ... 1.0000e-14
Partially contracted basis set               ... on
Rotationally invariant grid construction     ... off
Angular grids for H and He will be reduced by one unit
Diffuse basis detected: some atoms will have their outermost
                        angular grid increased by 1.

Total number of grid points                  ...    22195
Total number of batches                      ...      190
Average number of points per batch           ...      116
Average number of grid points per atom       ...      740
UseSFitting                                  ... on

GRIDX 2
-------
General Integration Accuracy     IntAcc      ... 4.020
Radial Grid Type                 RadialGrid  ... OptM3 with GC (2021)
Angular Grid (max. ang.)         AngularGrid ... 2 (Lebedev-110)
Angular grid pruning method      GridPruning ... 4 (adaptive)
Weight generation scheme         WeightScheme... mBecke (2022)
Basis function cutoff            BFCut       ... 1.0000e-11
Integration weight cutoff        WCut        ... 1.0000e-14
Partially contracted basis set               ... on
Rotationally invariant grid construction     ... off
Angular grids for H and He will be reduced by one unit
Diffuse basis detected: some atoms will have their outermost
                        angular grid increased by 1.

Total number of grid points                  ...    46961
Total number of batches                      ...      381
Average number of points per batch           ...      123
Average number of grid points per atom       ...     1565
UseSFitting                                  ... on

GRIDX 3
-------
General Integration Accuracy     IntAcc      ... 4.338
Radial Grid Type                 RadialGrid  ... OptM3 with GC (2021)
Angular Grid (max. ang.)         AngularGrid ... 3 (Lebedev-194)
Angular grid pruning method      GridPruning ... 4 (adaptive)
Weight generation scheme         WeightScheme... mBecke (2022)
Basis function cutoff            BFCut       ... 1.0000e-11
Integration weight cutoff        WCut        ... 1.0000e-14
Partially contracted basis set               ... on
Rotationally invariant grid construction     ... off
Angular grids for H and He will be reduced by one unit
Diffuse basis detected: some atoms will have their outermost
                        angular grid increased by 1.

Total number of grid points                  ...   102744
Total number of batches                      ...      819
Average number of points per batch           ...      125
Average number of grid points per atom       ...     3425
UseSFitting                                  ... on
Initializing property integral containers    ... done (  0.0 sec)

SHARK setup successfully completed in   3.3 seconds

Maximum memory used throughout the entire STARTUP-calculation: 84.8 MB
-------------------------------------------------------------------------------
                                 ORCA GUESS
                   Start orbitals & Density for SCF / CASSCF
-------------------------------------------------------------------------------

------------
SCF SETTINGS
------------
Hamiltonian:
 Density Functional     Method          .... DFT(GTOs)
 Exchange Functional    Exchange        .... B88
   X-Alpha parameter    XAlpha          ....  0.666667
   Becke's b parameter  XBeta           ....  0.004200
 Correlation Functional Correlation     .... LYP
 LDA part of GGA corr.  LDAOpt          .... VWN-5
 Gradients option       PostSCFGGA      .... off
 Hybrid DFT is turned on
   Fraction HF Exchange ScalHFX         ....  0.200000
   Scaling of DF-GGA-X  ScalDFX         ....  0.720000
   Scaling of DF-GGA-C  ScalDFC         ....  0.810000
   Scaling of DF-LDA-C  ScalLDAC        ....  1.000000
   Perturbative correction              ....  0.000000
   NL short-range parameter             ....  4.800000
 RI-approximation to the Coulomb term is turned on
   Number of AuxJ basis functions       .... 1056
   RIJ-COSX (HFX calculated with COS-X)).... on


General Settings:
 Integral files         IntName         .... Diclofenac\Diclofenac_B3LYP_6-311+G\Diclofenac_B3LYP_6-311+G.orcainp
 Hartree-Fock type      HFTyp           .... RHF
 Total Charge           Charge          ....    0
 Multiplicity           Mult            ....    1
 Number of Electrons    NEL             ....  152
 Basis Dimension        Dim             ....  500
 Nuclear Repulsion      ENuc            ....   1642.8205568299 Eh

Convergence Acceleration:
 AO-DIIS                CNVDIIS         .... on
   Start iteration      DIISMaxIt       ....    12
   Startup error        DIISStart       ....  0.200000
   # of expansion vecs  DIISMaxEq       ....     5
   Bias factor          DIISBfac        ....   1.050
   Max. coefficient     DIISMaxC        ....  10.000
 MO-DIIS                CNVKDIIS        .... off
 Trust-Rad. Augm. Hess. CNVTRAH         .... auto
   Auto Start mean grad. ratio tolernc. ....  1.125000
   Auto Start start iteration           ....    50
   Auto Start num. interpolation iter.  ....    10
   Max. Number of Micro iterations      ....    24
   Max. Number of Macro iterations      .... Maxiter - #DIIS iter
   Number of Davidson start vectors     ....     2
   Converg. threshold    (grad. norm)   ....   1.000e-05
   Grad. Scal. Fac. for Micro threshold ....   0.100
   Minimum threshold for Micro iter.    ....   1.000e-02
   NR start threshold (gradient norm)   ....   1.000e-04
   Initial trust radius                 ....   0.400
   Minimum AH scaling param. (alpha)    ....   1.000
   Maximum AH scaling param. (alpha)    .... 1000.000
   Quad. conv. algorithm                .... NR
   White noise on init. David. guess    .... on
   Maximum white noise                  ....   0.010
   Pseudo random numbers                .... off
   Inactive MOs                         .... canonical
   Orbital update algorithm             .... Taylor
   Preconditioner                       .... Diag
   Full preconditioner red. dimension   ....   250
 SOSCF                  CNVSOSCF        .... on
   Start iteration      SOSCFMaxIt      ....   150
   Startup grad/error   SOSCFStart      ....  0.003300
   Hessian update       SOSCFHessUp     .... L-BFGS
 Level Shifting         CNVShift        .... on
   Level shift para.    LevelShift      ....    0.2500
   Turn off err/grad.   ShiftErr        ....    0.0010
 Zerner damping         CNVZerner       .... off
 Static damping         CNVDamp         .... on
   Fraction old density DampFac         ....    0.7000
   Max. Damping (<1)    DampMax         ....    0.9800
   Min. Damping (>=0)   DampMin         ....    0.0000
   Turn off err/grad.   DampErr         ....    0.1000

SCF Procedure:
 Maximum # iterations   MaxIter         ....   125
 SCF integral mode      SCFMode         .... Direct
   Integral package                     .... SHARK and LIBINT hybrid scheme
 Reset frequency        DirectResetFreq ....    20
 Integral Threshold     Thresh          ....  1.000e-12 Eh
 Primitive CutOff       TCut            ....  1.000e-13 Eh

Convergence Tolerance:
 Convergence Check Mode ConvCheckMode   .... Total+1el-Energy
 Convergence forced     ConvForced      .... 0
 Energy Change          TolE            ....  1.000e-08 Eh
 1-El. energy change                    ....  1.000e-05 Eh
 Orbital Gradient       TolG            ....  1.000e-05
 Orbital Rotation angle TolX            ....  1.000e-05
 DIIS Error             TolErr          ....  5.000e-07

------------------------------
INITIAL GUESS: MODEL POTENTIAL
------------------------------
Loading Hartree-Fock densities                     ... done
Calculating cut-offs                               ... done
Initializing the effective Hamiltonian             ... done
Setting up the integral package (SHARK)            ... done
Starting the Coulomb interaction                   ... done (   0.6 sec)
Making the grid                                    ... done (   0.3 sec)
Mapping shells                                     ... done
Starting the XC term evaluation                    ... done (   0.9 sec)
  promolecular density results
     # of electrons  =    151.994073987
     EX              =   -153.301659080
     EC              =     -5.463792874
     EX+EC           =   -158.765451954
Transforming the Hamiltonian                       ... done (   0.0 sec)
Diagonalizing the Hamiltonian                      ... done (   0.0 sec)
Back transforming the eigenvectors                 ... done (   0.0 sec)
Now organizing SCF variables                       ... done
                      ------------------
                      INITIAL GUESS DONE (   1.9 sec)
                      ------------------
             **** ENERGY FILE WAS UPDATED (Diclofenac\Diclofenac_B3LYP_6-311+G\Diclofenac_B3LYP_6-311+G.orcainp.en.tmp) ****
Finished Guess after   2.0 sec
Maximum memory used throughout the entire GUESS-calculation: 54.1 MB

-------------------------------------------------------------------------------------------
                                      ORCA LEAN-SCF
                              memory conserving SCF solver
-------------------------------------------------------------------------------------------

--------------------
CPCM SOLVATION MODEL
--------------------
CPCM parameters:
  Epsilon                                         ...      80.1510
  Refrac                                          ...       1.3328
  Rsolv                                           ...       1.3000
  Surface type                                    ... GAUSSIAN VDW
  Discretization scheme                           ... Constant charge density
    Threshold for H atoms                         ...       5.0000 (charges/Ang^2)
    Threshold for non-H atoms                     ...       5.0000 (charges/Ang^2)
  Epsilon function type                           ...         CPCM
Solvent:                                          ... WATER
Radii:
  Scheme                                          ... Element-dependent radii
  Radius for O  used is    3.4469 Bohr (=   1.8240 Ang.)
  Radius for C  used is    3.8550 Bohr (=   2.0400 Ang.)
  Radius for N  used is    3.5149 Bohr (=   1.8600 Ang.)
  Radius for Cl used is    3.9684 Bohr (=   2.1000 Ang.)
  Radius for H  used is    2.4944 Bohr (=   1.3200 Ang.)
Calculating surface                               ...        done! (  0.0s)
Cavity surface points                             ...         2848
Cavity Volume                                     ...    2155.8247
Cavity Surface-area                               ...    1091.7714
Calculating surface distance matrix               ...        done! (  0.0s)
Performing Cholesky decomposition & store         ...        done! (  0.2s)
Overall time for CPCM initialization              ...                 0.2s

----------------------------------------D-I-I-S--------------------------------------------
Iteration    Energy (Eh)           Delta-E    RMSDP     MaxDP     DIISErr   Damp  Time(sec)
-------------------------------------------------------------------------------------------
               ***  Starting incremental Fock matrix formation  ***
    1    -1664.9698152337698502     0.00e+00  2.36e-02  2.00e+00  3.23e-01  0.700  24.8
    2    -1665.1812227170541973    -2.11e-01  1.66e-02  1.19e+00  1.17e-01  0.700  13.7
                               ***Turning on AO-DIIS***
    3    -1665.2638933735227056    -8.27e-02  7.42e-03  4.53e-01  4.08e-02  0.700  13.5
    4    -1665.3135910732951288    -4.97e-02  9.68e-03  6.00e-01  2.07e-02  0.000  13.4
    5    -1665.4227331646950461    -1.09e-01  6.58e-03  5.88e-01  6.69e-03  0.000  13.6
                              *** Initializing SOSCF ***
---------------------------------------S-O-S-C-F--------------------------------------
Iteration    Energy (Eh)           Delta-E    RMSDP     MaxDP     MaxGrad    Time(sec)
--------------------------------------------------------------------------------------
    6    -1665.4233733985254275    -6.40e-04  1.18e-03  1.28e-01  2.28e-03    13.1
               *** Restarting incremental Fock matrix formation ***
    7    -1665.4234213561933302    -4.80e-05  1.34e-03  1.32e-01  2.98e-04    24.9
    8    -1665.4234180700334491     3.29e-06  4.40e-04  5.74e-02  5.98e-04    19.9
    9    -1665.4234309349146770    -1.29e-05  2.74e-04  2.13e-02  1.10e-04    18.6
   10    -1665.4234306822520466     2.53e-07  1.32e-04  1.71e-02  9.12e-05    18.3
   11    -1665.4234315726350815    -8.90e-07  2.10e-04  2.75e-02  2.09e-05    17.4
   12    -1665.4234315216865525     5.09e-08  9.56e-05  8.73e-03  3.16e-05    16.5
   13    -1665.4234315943147067    -7.26e-08  2.68e-04  2.32e-02  3.00e-06    15.8
   14    -1665.4234315916535252     2.66e-09  1.41e-04  1.21e-02  4.58e-06    14.7
                 **** Energy Check signals convergence ****

               *****************************************************
               *                     SUCCESS                       *
               *           SCF CONVERGED AFTER  14 CYCLES          *
               *****************************************************

Recomputing exchange energy using gridx3       ... done (   39.312 sec)
Old exchange energy                            :    -30.923656296 Eh
New exchange energy                            :    -30.923631223 Eh
Exchange energy change after final integration :      0.000025074 Eh
Total energy after final integration           :  -1665.423406518 Eh
             **** ENERGY FILE WAS UPDATED (Diclofenac\Diclofenac_B3LYP_6-311+G\Diclofenac_B3LYP_6-311+G.orcainp.en.tmp) ****

----------------
TOTAL SCF ENERGY
----------------

Total Energy       :      -1665.42340651811810 Eh          -45318.47484 eV

Components:
Nuclear Repulsion  :       1642.82055682993882 Eh           44703.42003 eV
Electronic Energy  :      -3308.22459227457693 Eh          -90021.36775 eV
One Electron Energy:      -5549.59163467097187 Eh         -151012.06568 eV
Two Electron Energy:       2241.36704239639494 Eh           60990.69793 eV
CPCM Dielectric    :         -0.01939614701538 Eh              -0.52780 eV

Virial components:
Potential Energy   :      -3325.91362584625404 Eh          -90502.71083 eV
Kinetic Energy     :       1660.49021932813616 Eh           45184.23599 eV
Virial Ratio       :          2.00297092216055

DFT components:
N(Alpha)           :       75.999990493301 electrons
N(Beta)            :       75.999990493301 electrons
N(Total)           :      151.999980986603 electrons
E(X)               :     -122.889856879715 Eh       
E(C)               :       -6.420431379681 Eh       
E(XC)              :     -129.310288259396 Eh       

CPCM Solvation Model Properties:
Surface-charge          :         -0.03329142202863
Corrected charge        :         -0.00000000000000
Outlying charge corr.   :          0.00006198772306 Eh               0.00169 eV
Free-energy (cav+disp)  :  This term is not implemented in the current solvation scheme

---------------
SCF CONVERGENCE
---------------

  Last Energy change         ...   -2.6612e-09  Tolerance :   1.0000e-08
  Last MAX-Density change    ...    1.2079e-02  Tolerance :   1.0000e-07
  Last RMS-Density change    ...    1.4105e-04  Tolerance :   5.0000e-09
  Last DIIS Error            ...    2.2774e-03  Tolerance :   5.0000e-07
  Last Orbital Gradient      ...    4.5794e-06  Tolerance :   1.0000e-05
  Last Orbital Rotation      ...    8.2275e-06  Tolerance :   1.0000e-05


----------------
ORBITAL ENERGIES
----------------

  NO   OCC          E(Eh)            E(eV) 
   0   2.0000    -101.564817     -2763.7192 
   1   2.0000    -101.560786     -2763.6095 
   2   2.0000     -19.187423      -522.1163 
   3   2.0000     -19.130902      -520.5783 
   4   2.0000     -14.341416      -390.2498 
   5   2.0000     -10.325095      -280.9601 
   6   2.0000     -10.250665      -278.9348 
   7   2.0000     -10.247242      -278.8416 
   8   2.0000     -10.246064      -278.8096 
   9   2.0000     -10.228550      -278.3330 
  10   2.0000     -10.196838      -277.4701 
  11   2.0000     -10.195631      -277.4372 
  12   2.0000     -10.191660      -277.3292 
  13   2.0000     -10.190688      -277.3027 
  14   2.0000     -10.183813      -277.1156 
  15   2.0000     -10.178869      -276.9811 
  16   2.0000     -10.175912      -276.9007 
  17   2.0000     -10.175361      -276.8856 
  18   2.0000     -10.169924      -276.7377 
  19   2.0000      -9.479717      -257.9562 
  20   2.0000      -9.475811      -257.8499 
  21   2.0000      -7.244134      -197.1229 
  22   2.0000      -7.240285      -197.0182 
  23   2.0000      -7.234717      -196.8667 
  24   2.0000      -7.234396      -196.8579 
  25   2.0000      -7.230844      -196.7613 
  26   2.0000      -7.230352      -196.7479 
  27   2.0000      -1.129072       -30.7236 
  28   2.0000      -1.030785       -28.0491 
  29   2.0000      -0.959701       -26.1148 
  30   2.0000      -0.901723       -24.5371 
  31   2.0000      -0.887028       -24.1373 
  32   2.0000      -0.856224       -23.2990 
  33   2.0000      -0.831863       -22.6361 
  34   2.0000      -0.799339       -21.7511 
  35   2.0000      -0.766959       -20.8700 
  36   2.0000      -0.734622       -19.9901 
  37   2.0000      -0.733917       -19.9709 
  38   2.0000      -0.718942       -19.5634 
  39   2.0000      -0.639010       -17.3884 
  40   2.0000      -0.629090       -17.1184 
  41   2.0000      -0.618784       -16.8380 
  42   2.0000      -0.602711       -16.4006 
  43   2.0000      -0.588662       -16.0183 
  44   2.0000      -0.547389       -14.8952 
  45   2.0000      -0.539837       -14.6897 
  46   2.0000      -0.513391       -13.9701 
  47   2.0000      -0.501293       -13.6409 
  48   2.0000      -0.500369       -13.6157 
  49   2.0000      -0.490964       -13.3598 
  50   2.0000      -0.478959       -13.0331 
  51   2.0000      -0.469405       -12.7732 
  52   2.0000      -0.459160       -12.4944 
  53   2.0000      -0.453505       -12.3405 
  54   2.0000      -0.442180       -12.0323 
  55   2.0000      -0.440153       -11.9772 
  56   2.0000      -0.422936       -11.5087 
  57   2.0000      -0.420340       -11.4380 
  58   2.0000      -0.410356       -11.1663 
  59   2.0000      -0.396505       -10.7895 
  60   2.0000      -0.394237       -10.7277 
  61   2.0000      -0.383808       -10.4440 
  62   2.0000      -0.377652       -10.2764 
  63   2.0000      -0.372623       -10.1396 
  64   2.0000      -0.356865        -9.7108 
  65   2.0000      -0.354682        -9.6514 
  66   2.0000      -0.342763        -9.3271 
  67   2.0000      -0.330234        -8.9861 
  68   2.0000      -0.329528        -8.9669 
  69   2.0000      -0.327549        -8.9131 
  70   2.0000      -0.320248        -8.7144 
  71   2.0000      -0.303073        -8.2470 
  72   2.0000      -0.265202        -7.2165 
  73   2.0000      -0.255831        -6.9615 
  74   2.0000      -0.250343        -6.8122 
  75   2.0000      -0.211892        -5.7659 
  76   0.0000      -0.036388        -0.9902 
  77   0.0000      -0.035545        -0.9672 
  78   0.0000      -0.027039        -0.7358 
  79   0.0000      -0.016244        -0.4420 
  80   0.0000      -0.005149        -0.1401 
  81   0.0000       0.000839         0.0228 
  82   0.0000       0.005564         0.1514 
  83   0.0000       0.011419         0.3107 
  84   0.0000       0.016154         0.4396 
  85   0.0000       0.024893         0.6774 
  86   0.0000       0.032444         0.8828 
*Only the first 10 virtual orbitals were printed.

                    ********************************
                    * MULLIKEN POPULATION ANALYSIS *
                    ********************************

-----------------------
MULLIKEN ATOMIC CHARGES
-----------------------
   0 O :   -0.263489
   1 C :    0.044551
   2 O :   -0.372806
   3 C :   -0.525539
   4 C :    1.047753
   5 C :   -0.243293
   6 C :   -0.113730
   7 C :   -0.250849
   8 C :   -0.200497
   9 C :   -0.782512
  10 N :    0.290918
  11 C :   -4.314970
  12 C :    2.697506
  13 Cl:    0.170640
  14 C :   -0.476125
  15 C :   -0.064130
  16 C :   -0.722072
  17 C :    1.531443
  18 Cl:    0.263667
  19 H :    0.358499
  20 H :    0.240120
  21 H :    0.195216
  22 H :    0.155559
  23 H :    0.153268
  24 H :    0.156554
  25 H :    0.165012
  26 H :    0.324103
  27 H :    0.183317
  28 H :    0.169215
  29 H :    0.182674
Sum of atomic charges:   -0.0000000

--------------------------------
MULLIKEN REDUCED ORBITAL CHARGES
--------------------------------
  0 O s       :     3.716943  s :     3.716943
      pz      :     1.536924  p :     4.533746
      px      :     1.542953
      py      :     1.453869
      dz2     :     0.001317  d :     0.012801
      dxz     :     0.002237
      dyz     :     0.002781
      dx2y2   :     0.003306
      dxy     :     0.003161

  1 C s       :     3.252392  s :     3.252392
      pz      :     0.868190  p :     2.507334
      px      :     0.889385
      py      :     0.749759
      dz2     :     0.029326  d :     0.195722
      dxz     :     0.018981
      dyz     :     0.047680
      dx2y2   :     0.050161
      dxy     :     0.049574

  2 O s       :     3.892899  s :     3.892899
      pz      :     1.513252  p :     4.464536
      px      :     1.523871
      py      :     1.427413
      dz2     :     0.002102  d :     0.015371
      dxz     :     0.001103
      dyz     :     0.004347
      dx2y2   :     0.003609
      dxy     :     0.004210

  3 C s       :     3.480284  s :     3.480284
      pz      :     0.968454  p :     2.989516
      px      :     0.903674
      py      :     1.117387
      dz2     :     0.008535  d :     0.055739
      dxz     :     0.018491
      dyz     :     0.006925
      dx2y2   :     0.013169
      dxy     :     0.008619

  4 C s       :     2.218369  s :     2.218369
      pz      :     0.969653  p :     2.665929
      px      :     0.500785
      py      :     1.195490
      dz2     :     0.004671  d :     0.067950
      dxz     :     0.009297
      dyz     :     0.010366
      dx2y2   :     0.022709
      dxy     :     0.020907

  5 C s       :     3.386603  s :     3.386603
      pz      :     1.008895  p :     2.798389
      px      :     0.746115
      py      :     1.043380
      dz2     :     0.003899  d :     0.058301
      dxz     :     0.011739
      dyz     :     0.003850
      dx2y2   :     0.021711
      dxy     :     0.017101

  6 C s       :     3.225320  s :     3.225320
      pz      :     1.004487  p :     2.829471
      px      :     0.931013
      py      :     0.893971
      dz2     :     0.004082  d :     0.058939
      dxz     :     0.006257
      dyz     :     0.008327
      dx2y2   :     0.017875
      dxy     :     0.022398

  7 C s       :     3.374322  s :     3.374322
      pz      :     0.988764  p :     2.816878
      px      :     1.017733
      py      :     0.810382
      dz2     :     0.003976  d :     0.059650
      dxz     :     0.005252
      dyz     :     0.010168
      dx2y2   :     0.019375
      dxy     :     0.020879

  8 C s       :     3.161220  s :     3.161220
      pz      :     1.027809  p :     2.983799
      px      :     0.957673
      py      :     0.998316
      dz2     :     0.004198  d :     0.055478
      dxz     :     0.010582
      dyz     :     0.003980
      dx2y2   :     0.021408
      dxy     :     0.015308

  9 C s       :     3.084559  s :     3.084559
      pz      :     0.883147  p :     3.603176
      px      :     1.056716
      py      :     1.663313
      dz2     :     0.006231  d :     0.094776
      dxz     :     0.017291
      dyz     :     0.014123
      dx2y2   :     0.027068
      dxy     :     0.030063

 10 N s       :     3.192348  s :     3.192348
      pz      :     1.457465  p :     3.490186
      px      :     1.128790
      py      :     0.903931
      dz2     :     0.002314  d :     0.026548
      dxz     :     0.004633
      dyz     :     0.004121
      dx2y2   :     0.007934
      dxy     :     0.007546

 11 C s       :     4.472565  s :     4.472565
      pz      :     2.284940  p :     5.749292
      px      :     2.141584
      py      :     1.322768
      dz2     :     0.016204  d :     0.093113
      dxz     :     0.009649
      dyz     :     0.029732
      dx2y2   :     0.019890
      dxy     :     0.017638

 12 C s       :     1.500633  s :     1.500633
      pz      :     1.124515  p :     1.720636
      px      :     1.164334
      py      :    -0.568213
      dz2     :     0.016070  d :     0.081225
      dxz     :     0.011614
      dyz     :     0.021694
      dx2y2   :     0.014314
      dxy     :     0.017532

 13 Cls       :     5.715585  s :     5.715585
      pz      :     3.629141  p :    11.082283
      px      :     3.698237
      py      :     3.754905
      dz2     :     0.005327  d :     0.031492
      dxz     :     0.008238
      dyz     :     0.008377
      dx2y2   :     0.003386
      dxy     :     0.006165

 14 C s       :     3.703525  s :     3.703525
      pz      :     1.070005  p :     2.714967
      px      :     0.995179
      py      :     0.649783
      dz2     :     0.008631  d :     0.057633
      dxz     :     0.008040
      dyz     :     0.013223
      dx2y2   :     0.014014
      dxy     :     0.013725

 15 C s       :     3.167937  s :     3.167937
      pz      :     0.960011  p :     2.837598
      px      :     0.893479
      py      :     0.984108
      dz2     :     0.012347  d :     0.058596
      dxz     :     0.009009
      dyz     :     0.011766
      dx2y2   :     0.014929
      dxy     :     0.010546

 16 C s       :     3.807278  s :     3.807278
      pz      :     1.058670  p :     2.857189
      px      :     0.989420
      py      :     0.809099
      dz2     :     0.009307  d :     0.057606
      dxz     :     0.007880
      dyz     :     0.013820
      dx2y2   :     0.012518
      dxy     :     0.014081

 17 C s       :     2.030420  s :     2.030420
      pz      :     1.239324  p :     2.357059
      px      :     1.309852
      py      :    -0.192117
      dz2     :     0.014283  d :     0.081078
      dxz     :     0.012270
      dyz     :     0.019484
      dx2y2   :     0.016149
      dxy     :     0.018891

 18 Cls       :     5.664964  s :     5.664964
      pz      :     3.522490  p :    11.039938
      px      :     3.642417
      py      :     3.875031
      dz2     :     0.007058  d :     0.031431
      dxz     :     0.010861
      dyz     :     0.005313
      dx2y2   :     0.003387
      dxy     :     0.004812

 19 H s       :     0.581238  s :     0.581238
      pz      :     0.023090  p :     0.060263
      px      :     0.023753
      py      :     0.013420

 20 H s       :     0.736658  s :     0.736658
      pz      :     0.010807  p :     0.023222
      px      :     0.005964
      py      :     0.006451

 21 H s       :     0.782019  s :     0.782019
      pz      :     0.005121  p :     0.022765
      px      :     0.004551
      py      :     0.013094

 22 H s       :     0.819313  s :     0.819313
      pz      :     0.005998  p :     0.025128
      px      :     0.004252
      py      :     0.014878

 23 H s       :     0.821716  s :     0.821716
      pz      :     0.005991  p :     0.025016
      px      :     0.011256
      py      :     0.007769

 24 H s       :     0.818428  s :     0.818428
      pz      :     0.005846  p :     0.025018
      px      :     0.013056
      py      :     0.006115

 25 H s       :     0.809760  s :     0.809760
      pz      :     0.006086  p :     0.025228
      px      :     0.004429
      py      :     0.014713

 26 H s       :     0.627439  s :     0.627439
      pz      :     0.016484  p :     0.048458
      px      :     0.020321
      py      :     0.011653

 27 H s       :     0.791330  s :     0.791330
      pz      :     0.010802  p :     0.025353
      px      :     0.008452
      py      :     0.006099

 28 H s       :     0.805424  s :     0.805424
      pz      :     0.005365  p :     0.025361
      px      :     0.005101
      py      :     0.014895

 29 H s       :     0.791917  s :     0.791917
      pz      :     0.007847  p :     0.025409
      px      :     0.009574
      py      :     0.007987



                     *******************************
                     * LOEWDIN POPULATION ANALYSIS *
                     *******************************

----------------------
LOEWDIN ATOMIC CHARGES
----------------------
   0 O :   -0.082598
   1 C :    0.027716
   2 O :   -0.236463
   3 C :   -0.050845
   4 C :   -0.098263
   5 C :   -0.055642
   6 C :   -0.085760
   7 C :   -0.064568
   8 C :   -0.075140
   9 C :   -0.061854
  10 N :   -0.091467
  11 C :   -0.090992
  12 C :   -0.255901
  13 Cl:    0.278131
  14 C :   -0.078871
  15 C :   -0.066938
  16 C :   -0.078541
  17 C :   -0.252146
  18 Cl:    0.256094
  19 H :    0.174094
  20 H :    0.119070
  21 H :    0.105751
  22 H :    0.091010
  23 H :    0.081671
  24 H :    0.083209
  25 H :    0.099306
  26 H :    0.128217
  27 H :    0.096446
  28 H :    0.088249
  29 H :    0.097026

-------------------------------
LOEWDIN REDUCED ORBITAL CHARGES
-------------------------------
  0 O s       :     3.394396  s :     3.394396
      pz      :     1.568457  p :     4.669029
      px      :     1.530344
      py      :     1.570229
      dz2     :     0.002067  d :     0.019173
      dxz     :     0.003590
      dyz     :     0.003762
      dx2y2   :     0.005133
      dxy     :     0.004621

  1 C s       :     2.772222  s :     2.772222
      pz      :     0.906702  p :     2.788823
      px      :     0.897873
      py      :     0.984249
      dz2     :     0.060329  d :     0.411239
      dxz     :     0.038119
      dyz     :     0.098608
      dx2y2   :     0.110647
      dxy     :     0.103536

  2 O s       :     3.515611  s :     3.515611
      pz      :     1.557133  p :     4.697740
      px      :     1.564270
      py      :     1.576336
      dz2     :     0.002748  d :     0.023112
      dxz     :     0.001801
      dyz     :     0.006632
      dx2y2   :     0.005578
      dxy     :     0.006354

  3 C s       :     2.762693  s :     2.762693
      pz      :     1.044918  p :     3.165807
      px      :     1.036994
      py      :     1.083895
      dz2     :     0.017724  d :     0.122345
      dxz     :     0.042132
      dyz     :     0.014022
      dx2y2   :     0.028242
      dxy     :     0.020224

  4 C s       :     2.776755  s :     2.776755
      pz      :     0.999394  p :     3.165151
      px      :     1.072080
      py      :     1.093676
      dz2     :     0.011399  d :     0.156358
      dxz     :     0.018357
      dyz     :     0.021154
      dx2y2   :     0.053630
      dxy     :     0.051818

  5 C s       :     2.788627  s :     2.788627
      pz      :     0.964328  p :     3.134366
      px      :     1.107891
      py      :     1.062148
      dz2     :     0.008486  d :     0.132649
      dxz     :     0.024075
      dyz     :     0.006471
      dx2y2   :     0.050273
      dxy     :     0.043344

  6 C s       :     2.790667  s :     2.790667
      pz      :     0.979185  p :     3.160751
      px      :     1.080026
      py      :     1.101540
      dz2     :     0.009007  d :     0.134342
      dxz     :     0.011937
      dyz     :     0.016695
      dx2y2   :     0.045003
      dxy     :     0.051699

  7 C s       :     2.792494  s :     2.792494
      pz      :     0.955533  p :     3.137191
      px      :     1.071204
      py      :     1.110454
      dz2     :     0.008664  d :     0.134883
      dxz     :     0.009575
      dyz     :     0.020759
      dx2y2   :     0.046627
      dxy     :     0.049259

  8 C s       :     2.781671  s :     2.781671
      pz      :     1.002687  p :     3.166189
      px      :     1.093634
      py      :     1.069869
      dz2     :     0.008911  d :     0.127280
      dxz     :     0.021716
      dyz     :     0.006653
      dx2y2   :     0.049685
      dxy     :     0.040315

  9 C s       :     2.753223  s :     2.753223
      pz      :     0.979042  p :     3.094693
      px      :     1.044268
      py      :     1.071383
      dz2     :     0.015172  d :     0.213938
      dxz     :     0.034872
      dyz     :     0.028622
      dx2y2   :     0.063401
      dxy     :     0.071870

 10 N s       :     2.986711  s :     2.986711
      pz      :     1.552496  p :     4.050711
      px      :     1.260677
      py      :     1.237538
      dz2     :     0.004023  d :     0.054045
      dxz     :     0.007983
      dyz     :     0.007415
      dx2y2   :     0.017628
      dxy     :     0.016995

 11 C s       :     2.759253  s :     2.759253
      pz      :     1.063281  p :     3.118671
      px      :     1.062819
      py      :     0.992571
      dz2     :     0.035333  d :     0.213068
      dxz     :     0.025239
      dyz     :     0.065122
      dx2y2   :     0.047125
      dxy     :     0.040249

 12 C s       :     2.825471  s :     2.825471
      pz      :     1.068964  p :     3.245132
      px      :     1.060124
      py      :     1.116044
      dz2     :     0.035177  d :     0.185298
      dxz     :     0.029090
      dyz     :     0.048790
      dx2y2   :     0.034174
      dxy     :     0.038068

 13 Cls       :     5.619146  s :     5.619146
      pz      :     3.609043  p :    11.067953
      px      :     3.718113
      py      :     3.740797
      dz2     :     0.005835  d :     0.034770
      dxz     :     0.009051
      dyz     :     0.009289
      dx2y2   :     0.003672
      dxy     :     0.006923

 14 C s       :     2.793978  s :     2.793978
      pz      :     1.033822  p :     3.151366
      px      :     1.025903
      py      :     1.091641
      dz2     :     0.018676  d :     0.133527
      dxz     :     0.016704
      dyz     :     0.031288
      dx2y2   :     0.034511
      dxy     :     0.032348

 15 C s       :     2.790441  s :     2.790441
      pz      :     1.043505  p :     3.143002
      px      :     1.035232
      py      :     1.064265
      dz2     :     0.025957  d :     0.133495
      dxz     :     0.023767
      dyz     :     0.027427
      dx2y2   :     0.031456
      dxy     :     0.024889

 16 C s       :     2.793218  s :     2.793218
      pz      :     1.044403  p :     3.151812
      px      :     1.029429
      py      :     1.077981
      dz2     :     0.020148  d :     0.133510
      dxz     :     0.017665
      dyz     :     0.032792
      dx2y2   :     0.030971
      dxy     :     0.031934

 17 C s       :     2.830270  s :     2.830270
      pz      :     1.036450  p :     3.236699
      px      :     1.070207
      py      :     1.130042
      dz2     :     0.030031  d :     0.185178
      dxz     :     0.030542
      dyz     :     0.044362
      dx2y2   :     0.038295
      dxy     :     0.041948

 18 Cls       :     5.633755  s :     5.633755
      pz      :     3.587005  p :    11.075464
      px      :     3.664843
      py      :     3.823616
      dz2     :     0.007623  d :     0.034687
      dxz     :     0.012001
      dyz     :     0.005921
      dx2y2   :     0.003757
      dxy     :     0.005384

 19 H s       :     0.650397  s :     0.650397
      pz      :     0.070032  p :     0.175509
      px      :     0.069911
      py      :     0.035567

 20 H s       :     0.809015  s :     0.809015
      pz      :     0.034226  p :     0.071915
      px      :     0.018284
      py      :     0.019405

 21 H s       :     0.826032  s :     0.826032
      pz      :     0.014381  p :     0.068216
      px      :     0.012586
      py      :     0.041250

 22 H s       :     0.838581  s :     0.838581
      pz      :     0.015178  p :     0.070409
      px      :     0.011440
      py      :     0.043791

 23 H s       :     0.847943  s :     0.847943
      pz      :     0.015050  p :     0.070386
      px      :     0.032798
      py      :     0.022538

 24 H s       :     0.846379  s :     0.846379
      pz      :     0.014443  p :     0.070412
      px      :     0.038285
      py      :     0.017685

 25 H s       :     0.828934  s :     0.828934
      pz      :     0.015654  p :     0.071760
      px      :     0.012315
      py      :     0.043792

 26 H s       :     0.717250  s :     0.717250
      pz      :     0.052265  p :     0.154533
      px      :     0.066729
      py      :     0.035539

 27 H s       :     0.832866  s :     0.832866
      pz      :     0.030695  p :     0.070688
      px      :     0.023330
      py      :     0.016663

 28 H s       :     0.840830  s :     0.840830
      pz      :     0.014203  p :     0.070920
      px      :     0.013196
      py      :     0.043521

 29 H s       :     0.832302  s :     0.832302
      pz      :     0.021486  p :     0.070672
      px      :     0.026776
      py      :     0.022409



                      *****************************
                      * MAYER POPULATION ANALYSIS *
                      *****************************

  NA   - Mulliken gross atomic population
[...]
      dx2y2   :     0.042849
      dxy     :     0.035143

 12 C s       :     2.826987  s :     2.826987
      pz      :     1.049974  p :     3.219246
      px      :     1.053019
      py      :     1.116254
      dz2     :     0.038848  d :     0.183952
      dxz     :     0.026043
      dyz     :     0.056644
      dx2y2   :     0.029548
      dxy     :     0.032869

 13 Cls       :     5.632122  s :     5.632122
      pz      :     3.579066  p :    11.079457
      px      :     3.799662
      py      :     3.700729
      dz2     :     0.005452  d :     0.031586
      dxz     :     0.006741
      dyz     :     0.010895
      dx2y2   :     0.002888
      dxy     :     0.005611

 14 C s       :     2.788857  s :     2.788857
      pz      :     1.058505  p :     3.152502
      px      :     0.996416
      py      :     1.097581
      dz2     :     0.025858  d :     0.134094
      dxz     :     0.014258
      dyz     :     0.035540
      dx2y2   :     0.030260
      dxy     :     0.028177

 15 C s       :     2.789726  s :     2.789726
      pz      :     1.065420  p :     3.128699
      px      :     0.996517
      py      :     1.066763
      dz2     :     0.033603  d :     0.132943
      dxz     :     0.023065
      dyz     :     0.034671
      dx2y2   :     0.024754
      dxy     :     0.016850

 16 C s       :     2.788954  s :     2.788954
      pz      :     1.069010  p :     3.151491
      px      :     0.998047
      py      :     1.084433
      dz2     :     0.025871  d :     0.134216
      dxz     :     0.016582
      dyz     :     0.038408
      dx2y2   :     0.026963
      dxy     :     0.026393

 17 C s       :     2.829613  s :     2.829613
      pz      :     1.017681  p :     3.216632
      px      :     1.060295
      py      :     1.138656
      dz2     :     0.038292  d :     0.183841
      dxz     :     0.026642
      dyz     :     0.054196
      dx2y2   :     0.030394
      dxy     :     0.034317

 18 Cls       :     5.646507  s :     5.646507
      pz      :     3.483189  p :    11.089795
      px      :     3.783159
      py      :     3.823447
      dz2     :     0.009207  d :     0.031409
      dxz     :     0.009585
      dyz     :     0.007218
      dx2y2   :     0.002102
      dxy     :     0.003297

 19 H s       :     0.657872  s :     0.657872
      pz      :     0.083151  p :     0.179677
      px      :     0.059016
      py      :     0.037510

 20 H s       :     0.815703  s :     0.815703
      pz      :     0.025935  p :     0.072447
      px      :     0.021458
      py      :     0.025054

 21 H s       :     0.827587  s :     0.827587
      pz      :     0.019059  p :     0.069478
      px      :     0.013768
      py      :     0.036651

 22 H s       :     0.837656  s :     0.837656
      pz      :     0.014571  p :     0.070685
      px      :     0.011913
      py      :     0.044201

 23 H s       :     0.848356  s :     0.848356
      pz      :     0.015871  p :     0.071373
      px      :     0.033138
      py      :     0.022364

 24 H s       :     0.847154  s :     0.847154
      pz      :     0.015977  p :     0.070564
      px      :     0.036171
      py      :     0.018416

 25 H s       :     0.826560  s :     0.826560
      pz      :     0.015756  p :     0.073231
      px      :     0.012470
      py      :     0.045004

 26 H s       :     0.725597  s :     0.725597
      pz      :     0.054060  p :     0.140533
      px      :     0.058878
      py      :     0.027595

 27 H s       :     0.831434  s :     0.831434
      pz      :     0.035155  p :     0.071547
      px      :     0.020288
      py      :     0.016104

 28 H s       :     0.840046  s :     0.840046
      pz      :     0.013123  p :     0.071370
      px      :     0.013715
      py      :     0.044532

 29 H s       :     0.831481  s :     0.831481
      pz      :     0.027688  p :     0.071641
      px      :     0.021039
      py      :     0.022914



                      *****************************
                      * MAYER POPULATION ANALYSIS *
                      *****************************

  NA   - Mulliken gross atomic population
  ZA   - Total nuclear charge
  QA   - Mulliken gross atomic charge
  VA   - Mayer's total valence
  BVA  - Mayer's bonded valence
  FA   - Mayer's free valence

  ATOM       NA         ZA         QA         VA         BVA        FA
  0 O      8.2791     8.0000    -0.2791     2.0014     2.0014    -0.0000
  1 C      5.9019     6.0000     0.0981     4.1095     4.1095     0.0000
  2 O      8.3604     8.0000    -0.3604     1.9332     1.9332    -0.0000
  3 C      6.5112     6.0000    -0.5112     3.2138     3.2138     0.0000
  4 C      5.1041     6.0000     0.8959     2.8255     2.8255     0.0000
  5 C      6.3957     6.0000    -0.3957     3.4023     3.4023    -0.0000
  6 C      6.0904     6.0000    -0.0904     3.6530     3.6530     0.0000
  7 C      6.2806     6.0000    -0.2806     3.6256     3.6256    -0.0000
  8 C      6.5051     6.0000    -0.5051     4.6512     4.6512     0.0000
  9 C      6.3132     6.0000    -0.3132     5.2592     5.2592    -0.0000
 10 N      6.7119     7.0000     0.2881     2.1156     2.1156     0.0000
 11 C      9.7092     6.0000    -3.7092     4.8359     4.8359    -0.0000
 12 C      3.5283     6.0000     2.4717    -2.8751    -2.8751    -0.0000
 13 Cl    16.8788    17.0000     0.1212     1.1088     1.1088     0.0000
 14 C      6.5538     6.0000    -0.5538     4.3436     4.3436    -0.0000
 15 C      6.0305     6.0000    -0.0305     3.5805     3.5805     0.0000
 16 C      6.6953     6.0000    -0.6953     4.5574     4.5574     0.0000
 17 C      4.6712     6.0000     1.3288     1.1627     1.1627     0.0000
 18 Cl    16.7266    17.0000     0.2734     1.1683     1.1683    -0.0000
 19 H      0.6464     1.0000     0.3536     0.8792     0.8792     0.0000
 20 H      0.7841     1.0000     0.2159     0.9407     0.9407    -0.0000
 21 H      0.7956     1.0000     0.2044     0.9320     0.9320     0.0000
 22 H      0.8454     1.0000     0.1546     0.9602     0.9602     0.0000
 23 H      0.8450     1.0000     0.1550     0.9565     0.9565     0.0000
 24 H      0.8435     1.0000     0.1565     0.9563     0.9563     0.0000
 25 H      0.8279     1.0000     0.1721     0.9503     0.9503    -0.0000
 26 H      0.7035     1.0000     0.2965     0.9577     0.9577    -0.0000
 27 H      0.8178     1.0000     0.1822     0.9463     0.9463    -0.0000
 28 H      0.8268     1.0000     0.1732     0.9528     0.9528     0.0000
 29 H      0.8168     1.0000     0.1832     0.9451     0.9451    -0.0000

  Mayer bond orders larger than 0.100000
B(  0-O ,  1-C ) :   1.2011 B(  0-O ,  9-C ) :  -0.1807 B(  0-O , 11-C ) :   0.2044 
B(  0-O , 17-C ) :  -0.2578 B(  0-O , 19-H ) :   0.8442 B(  1-C ,  2-O ) :   1.9148 
B(  1-C ,  3-C ) :   1.0342 B(  1-C ,  4-C ) :  -0.2602 B(  1-C ,  9-C ) :   0.2449 
B(  2-O ,  3-C ) :   0.1294 B(  2-O ,  5-C ) :  -0.2284 B(  2-O ,  9-C ) :   0.1667 
B(  3-C ,  4-C ) :   0.1849 B(  3-C ,  5-C ) :  -0.3473 B(  3-C ,  9-C ) :   0.4508 
B(  3-C , 10-N ) :  -0.2257 B(  3-C , 11-C ) :  -0.2696 B(  3-C , 14-C ) :   0.1442 
B(  3-C , 17-C ) :   0.1634 B(  3-C , 20-H ) :   1.1309 B(  3-C , 21-H ) :   0.9825 
B(  4-C ,  5-C ) :   0.9397 B(  4-C ,  6-C ) :  -0.2761 B(  4-C ,  7-C ) :   0.2710 
B(  4-C ,  8-C ) :   0.2761 B(  4-C ,  9-C ) :   2.0363 B(  4-C , 11-C ) :   0.2004 
B(  4-C , 12-C ) :  -0.9671 B(  4-C , 13-Cl) :   0.2869 B(  4-C , 14-C ) :   1.2920 
B(  4-C , 16-C ) :   0.3116 B(  4-C , 17-C ) :  -0.8041 B(  4-C , 18-Cl) :  -0.1301 
B(  4-C , 20-H ) :  -0.3214 B(  4-C , 26-H ) :  -0.1492 B(  5-C ,  6-C ) :   1.3918 
B(  5-C ,  7-C ) :   0.1571 B(  5-C ,  8-C ) :  -0.2002 B(  5-C ,  9-C ) :   0.6339 
B(  5-C , 11-C ) :   0.1260 B(  5-C , 12-C ) :  -0.1578 B(  5-C , 14-C ) :   0.1341 
B(  5-C , 20-H ) :  -0.1455 B(  5-C , 22-H ) :   0.9346 B(  6-C ,  7-C ) :   1.4082 
B(  6-C ,  9-C ) :   0.1874 B(  6-C , 14-C ) :   0.1337 B(  6-C , 17-C ) :  -0.1479 
B(  6-C , 23-H ) :   0.9768 B(  7-C ,  8-C ) :   1.1715 B(  7-C ,  9-C ) :  -0.1986 
B(  7-C , 11-C ) :   0.2960 B(  7-C , 13-Cl) :  -0.1156 B(  7-C , 14-C ) :  -0.1272 
B(  7-C , 15-C ) :  -0.1156 B(  7-C , 16-C ) :   0.1544 B(  7-C , 24-H ) :   0.9823 
B(  7-C , 25-H ) :  -0.1361 B(  8-C ,  9-C ) :   1.5484 B(  8-C , 10-N ) :  -0.3715 
B(  8-C , 11-C ) :   0.7542 B(  8-C , 13-Cl) :   0.6397 B(  8-C , 14-C ) :  -0.4391 
B(  8-C , 16-C ) :   0.1156 B(  8-C , 18-Cl) :   0.2401 B(  8-C , 25-H ) :   0.9799 
B(  8-C , 26-H ) :   0.1039 B(  9-C , 10-N ) :   1.0636 B(  9-C , 11-C ) :  -0.3142 
B(  9-C , 12-C ) :   0.7847 B(  9-C , 13-Cl) :  -0.8363 B(  9-C , 14-C ) :  -1.3687 
B(  9-C , 16-C ) :  -0.5784 B(  9-C , 17-C ) :   1.0057 B(  9-C , 18-Cl) :  -0.1035 
B(  9-C , 20-H ) :   0.3004 B(  9-C , 26-H ) :   0.1058 B( 10-N , 11-C ) :   0.9823 
B( 10-N , 13-Cl) :  -0.1220 B( 10-N , 18-Cl) :  -0.1969 B( 10-N , 26-H ) :   0.8661 
B( 11-C , 12-C ) :  -2.5548 B( 11-C , 13-Cl) :   2.6039 B( 11-C , 14-C ) :  -0.4825 
B( 11-C , 15-C ) :  -0.3049 B( 11-C , 16-C ) :   0.4124 B( 11-C , 17-C ) :   0.7132 
B( 11-C , 18-Cl) :   2.0402 B( 11-C , 29-H ) :   0.1530 B( 12-C , 13-Cl) :  -2.7602 
B( 12-C , 14-C ) :   1.3606 B( 12-C , 16-C ) :  -0.4048 B( 12-C , 17-C ) :   1.6396 
B( 12-C , 18-Cl) :   0.2636 B( 13-Cl, 14-C ) :   0.6835 B( 13-Cl, 15-C ) :   0.1071 
B( 13-Cl, 16-C ) :   0.2168 B( 13-Cl, 17-C ) :   0.3785 B( 14-C , 15-C ) :   1.2934 
B( 14-C , 16-C ) :   0.5751 B( 14-C , 18-Cl) :   0.1551 B( 14-C , 27-H ) :   0.9294 
B( 15-C , 16-C ) :   1.1555 B( 15-C , 17-C ) :   0.1843 B( 15-C , 18-Cl) :   0.1306 
B( 15-C , 28-H ) :   0.9584 B( 16-C , 17-C ) :   0.9473 B( 16-C , 18-Cl) :   0.6628 
B( 16-C , 29-H ) :   0.9785 B( 17-C , 18-Cl) :  -2.0544 B( 17-C , 26-H ) :  -0.1220 
B( 17-C , 29-H ) :  -0.1279 

-------
TIMINGS
-------

Total SCF time: 0 days 0 hours 3 min 15 sec 

Total time                  ....     195.327 sec
Sum of individual times     ....     195.287 sec  (100.0%)

SCF preparation             ....       0.329 sec  (  0.2%)
Fock matrix formation       ....     194.384 sec  ( 99.5%)
  Startup                   ....       0.017 sec  (  0.0% of F)
  Split-RI-J                ....      10.184 sec  (  5.2% of F)
  Chain of spheres X        ....     151.707 sec  ( 78.0% of F)
  XC integration            ....      17.254 sec  (  8.9% of F)
    Basis function eval.    ....       4.066 sec  ( 23.6% of XC)
    Density eval.           ....       5.367 sec  ( 31.1% of XC)
    XC-Functional eval.     ....       0.287 sec  (  1.7% of XC)
    XC-Potential eval.      ....       7.102 sec  ( 41.2% of XC)
  CPCM terms                ....      15.134 sec  (  7.8% of F)
Diagonalization             ....       0.000 sec  (  0.0%)
Density matrix formation    ....       0.050 sec  (  0.0%)
Total Energy calculation    ....       0.028 sec  (  0.0%)
Population analysis         ....       0.058 sec  (  0.0%)
Orbital Transformation      ....       0.074 sec  (  0.0%)
Orbital Orthonormalization  ....       0.000 sec  (  0.0%)
DIIS solution               ....       0.172 sec  (  0.1%)
SOSCF solution              ....       0.192 sec  (  0.1%)
Finished LeanSCF after 195.4 sec

Maximum memory used throughout the entire LEANSCF-calculation: 104.8 MB

-------------------------   --------------------
FINAL SINGLE POINT ENERGY     -1665.436486528959
-------------------------   --------------------

                                *** OPTIMIZATION RUN DONE ***


------------------------------------------------------------------------------
                              ORCA PROPERTY CALCULATIONS
------------------------------------------------------------------------------

GBWName                                 ... Diclofenac\Diclofenac_B3LYP_6-311+G\Diclofenac_B3LYP_6-311+G.orcainp.gbw
Number of atoms                         ...     30
Number of basis functions               ...    500
Max core memory                         ...   1024 MB

Electric properties:
Dipole moment                           ... YES
Quadrupole moment                       ...  NO
Static polarizability (Dipole/Dipole)   ...  NO
Static polarizability (Dipole/Quad.)    ...  NO
Static polarizability (Quad./Quad.)     ...  NO
Static polarizability (Velocity)        ...  NO

Atomic electric properties:
Dipole moment                           ...  NO
Quadrupole moment                       ...  NO
Static polarizability                   ...  NO

Choice of electric origin               ... Center of mass
Position of electric origin             ...     7.939103     2.255811    -1.273341

General magnetic properties:
Magnetizability                         ...  NO

EPR properties:
g-Tensor (aka g-matrix)                 ...  NO
Zero-Field splitting spin-orbit         ...  NO
Zero-field splitting spin-spin          ...  NO
Hyperfine couplings                     ...  NO (   0 nuclei)
Quadrupole couplings                    ...  NO (   0 nuclei)
Contact density                         ...  NO (   0 nuclei)

NMR properties:
Chemical shifts                         ...  NO (   0 nuclei)
Spin-rotation constants                 ...  NO (   0 nuclei)
Spin-spin couplings                     ...  NO (   0 nuclei,    0 pairs)

Choice of magnetic origin               ... GIAO
Position of magnetic origin             ...     0.000000     0.000000     0.000000

Properties with geometric perturbations:
SCF Hessian                             ...  NO
IR spectrum                             ...  NO
VCD spectrum                            ...  NO
X-ray spectroscopy properties:
SCF XES/XAS/RIXS spectra                ...  NO


-------------
DIPOLE MOMENT
-------------

Method             : SCF
Type of density    : Electron Density
Multiplicity       :   1
Irrep              :   0
Energy             : -1665.4364865289585396 Eh
Relativity type    : 
Basis              : AO
                                X                 Y                 Z
Electronic contribution:     -6.287028650       7.144597778      -1.012190585
Nuclear contribution   :      6.143414265      -5.548105004       1.040065910
                        -----------------------------------------
Total Dipole Moment    :     -0.143614385       1.596492774       0.027875325
                        -----------------------------------------
Magnitude (a.u.)       :      1.603181619
Magnitude (Debye)      :      4.074963832



--------------------
Rotational spectrum 
--------------------
 
Rotational constants in cm-1:             0.014072             0.008115             0.006304 
Rotational constants in MHz :           421.878513           243.295843           188.990066 

Dipole components along the rotational axes: 
x,y,z [a.u.] :    -1.567083    -0.227749     0.250147 
x,y,z [Debye]:    -3.983207    -0.578892     0.635824 

 

Dipole moment calculation done in   0.0 sec 

Maximum memory used throughout the entire PROP-calculation: 44.7 MB

--------------------------------
SUGGESTED CITATIONS FOR THIS RUN
--------------------------------

Below you find a list of papers that are relevant to this ORCA run
We neither can nor want to force you to cite these papers, but we appreciate if you do
You receive ORCA, which is the product of decades of hard work by many enthusiastic individuals, for free
The only thing we kindly ask in return is that you cite our papers,
We deeply appreciate it, if you show your appreciation for ORCA by not just citing the generic ORCA reference.

Please note that relegating all ORCA citations to the supporting information does *not* help us.
SI sections are not indexed - citations you put there will not count into any citation statistics
But we need these citations in order to attract the funding resources that allow us to do what we are doing

Therefore, if you are a happy ORCA user, please consider citing a few of the papers listed below in the main body of your paper

In addition to the list printed below, the program has created the file Diclofenac\Diclofenac_B3LYP_6-311+G\Diclofenac_B3LYP_6-311+G.orcainp.bibtex that contains the list in bibtex format
You can import this file easily into all common literature databanks and citation aid programs


List of essential papers. We consider these as the minimum necessary citations

  1. Neese,F.
     Software update: the ORCA program system, version 5.0
     WIRES Comput. Molec. Sci., 2022 12(1)e1606
     doi.org/10.1002/wcms.1606

List of papers to cite with high priority. The work reported in these papers was absolutely
necessary for this run to complete.
Our perspective: the developers of density functionals and basis sets usually get cited in chemistry papers
Good! But without the algorithms to do something with them, the functionals or basis sets would not do anything.
Hence, in our opinion, the algorithm design and method developments papers are equally worthy of getting cited

  1. Neese,F.
     An improvement of the resolution of the identity approximation for the formation of the Coulomb matrix
     J. Comp. Chem., 2003 24(14)1740-1747
     doi.org/10.1002/jcc.10318
  2. Neese,F.; Wennmohs,F.; Hansen,A.; Becker,U.
     Efficient, approximate and parallel Hartree-Fock and hybrid DFT calculations. A 'chain-of-spheres' algorithm for the Hartree-Fock exchange
     Chem. Phys., 2009 356(1-3)98-109
     doi.org/10.1016/j.chemphys.2008.10.036
  3. Garcia-Rates,M.; Neese,F.
     Effect of the Solute Cavity on the Solvation Energy and its Derivatives within the Framework of the Gaussian Charge Scheme
     J. Comput. Chem., 2020 41 922-939
     doi.org/10.1002/jcc.26139
  4. Helmich-Paris,B.; de Souza,B.; Neese,F.; Izsák,R.
     An improved chain of spheres for exchange algorithm
     J. Chem. Phys., 2021 155 104109
     doi.org/doi: 10.1063/5.0058766.
  5. Neese,F.
     The SHARK Integral Generation and Digestion System
     J. Comp. Chem., 2022  1-16
     doi.org/10.1002/jcc.26942

List of suggested additional citations. These are papers that are important in the 'surrounding' of 
of this run, or papers that preceded the highly important papers. If you like your results we are grateful for a citation.

  1. Izsak,R.; Neese,F.
     An overlap fitted chain of spheres exchange method
     J. Chem. Phys., 2011 135 144105
     doi.org/10.1063/1.3646921
  2. Izsak,R.; Hansen,A.; Neese,F.
     The resolution of identity and chain of spheres approximations for the LPNO-CCSD singles Fock term
     Molec. Phys., 2012 110 2413-2417
     doi.org/10.1080/00268976.2012.687466
  3. Neese,F.
     The ORCA program system
     WIRES Comput. Molec. Sci., 2012 2(1)73-78
     doi.org/10.1002/wcms.81
  4. Izsak,R.; Neese,F.; Klopper,W.
     Robust fitting techniques in the chain of spheres approximation to the Fock exchange: The role of the complementary space
     J. Chem. Phys., 2013 139 
     doi.org/10.1063/1.4819264
  5. Neese,F.
     Software update: the ORCA program system, version 4.0
     WIRES Comput. Molec. Sci., 2018 8(1)1-6
     doi.org/10.1002/wcms.1327
  6. Neese,F.; Wennmohs,F.; Becker,U.; Riplinger,C.
     The ORCA quantum chemistry program package
     J. Chem. Phys., 2020 152 Art. No. L224108
     doi.org/10.1063/5.0004608

List of optional additional citations

  1. Neese,F.
     Approximate second-order SCF convergence for spin unrestricted wavefunctions
     Chem. Phys. Lett., 2000 325(1-3)93-98
     doi.org/10.1016/s0009-2614(00)00662-x

Timings for individual modules:

Sum of individual times          ...     7091.810 sec (= 118.197 min)
Startup calculation              ...       55.721 sec (=   0.929 min)   0.8 %
SCF iterations                   ...     3761.233 sec (=  62.687 min)  53.0 %
Property calculations            ...        0.125 sec (=   0.002 min)   0.0 %
SCF Gradient evaluation          ...     3274.562 sec (=  54.576 min)  46.2 %
Geometry relaxation              ...        0.169 sec (=   0.003 min)   0.0 %
                             ****ORCA TERMINATED NORMALLY****
TOTAL RUN TIME: 0 days 1 hours 58 minutes 13 seconds 703 msec
