
                                 *****************
                                 * O   R   C   A *
                                 *****************

                                            #,                                       
                                            ###                                      
                                            ####                                     
                                            #####                                    
                                            ######                                   
                                           ########,                                 
                                     ,,################,,,,,                         
                               ,,#################################,,                 
                          ,,##########################################,,             
                       ,#########################################, ''#####,          
                    ,#############################################,,   '####,        
                  ,##################################################,,,,####,       
                ,###########''''           ''''###############################       
              ,#####''   ,,,,##########,,,,          '''####'''          '####       
            ,##' ,,,,###########################,,,                        '##       
           ' ,,###''''                  '''############,,,                           
         ,,##''                                '''############,,,,        ,,,,,,###''
      ,#''                                            '''#######################'''  
     '                                                          ''''####''''         
             ,#######,   #######,   ,#######,      ##                                
            ,#'     '#,  ##    ##  ,#'     '#,    #''#        ,####,   ,####,        
            ##       ##  ##   ,#'  ##            #'  '#       #'       #'  '#        
            ##       ##  #######   ##           ,######,      #####,   #    #        
            '#,     ,#'  ##    ##  '#,     ,#' ,#      #,     #,   #   #,  ,#        
             '#######'   ##     ##  '#######'  #'      '#     '####' # '####'        



                #########################################################
                #                        -***-                          #
                #          Department of theory and spectroscopy        #
                #                                                       #
                #                      Frank Neese                      #
                #                                                       #
                #     Directorship, Architecture, Infrastructure        #
                #                    SHARK, DRIVERS                     #
                #        Core code/Algorithms in most modules           #
                #                                                       #
                #        Max Planck Institute fuer Kohlenforschung      #
                #                Kaiser Wilhelm Platz 1                 #
                #                 D-45470 Muelheim/Ruhr                 #
                #                      Germany                          #
                #                                                       #
                #                  All rights reserved                  #
                #                        -***-                          #
                #########################################################


                         Program Version 6.0.0  -   RELEASE   -


 With contributions from (in alphabetic order):
   Daniel Aravena         : Magnetic Suceptibility
   Michael Atanasov       : Ab Initio Ligand Field Theory (pilot matlab implementation)
   Alexander A. Auer      : GIAO ZORA, VPT2 properties, NMR spectrum
   Ute Becker             : All parallelization in ORCA, NUMFREQ, NUMCALC
   Giovanni Bistoni       : ED, misc. LED, open-shell LED, HFLD
   Martin Brehm           : Molecular dynamics
   Dmytro Bykov           : pre 5.0 version of the SCF Hessian
   Marcos Casanova-Páez   : Triplet and SCS-CIS(D). UHF-(DLPNO)-IP/EA/STEOM-CCSD. UHF-CVS-IP/STEOM-CCSD
   Vijay G. Chilkuri      : MRCI spin determinant printing, contributions to CSF-ICE
   Pauline Colinet        : FMM embedding
   Dipayan Datta          : RHF DLPNO-CCSD density
   Achintya Kumar Dutta   : EOM-CC, STEOM-CC
   Nicolas Foglia         : Exact transition moments, OPA infrastructure, MCD improvements
   Dmitry Ganyushin       : Spin-Orbit,Spin-Spin,Magnetic field MRCI
   Miquel Garcia          : C-PCM and meta-GGA Hessian, CCSD/C-PCM, Gaussian charge scheme
   Tiago L. C. Gouveia    : GS-ROHF, GS-ROCIS
   Yang Guo               : DLPNO-NEVPT2, F12-NEVPT2, CIM, IAO-localization
   Andreas Hansen         : Spin unrestricted coupled pair/coupled cluster methods
   Ingolf Harden          : AUTO-CI MPn and infrastructure 
   Benjamin Helmich-Paris : MC-RPA, TRAH-(SCF,CASSCF), AVAS, COSX integrals, SCF dyn. polar.
   Lee Huntington         : MR-EOM, pCC
   Robert Izsak           : Overlap fitted RIJCOSX, COSX-SCS-MP3, EOM
   Riya Kayal             : Wick's Theorem for AUTO-CI, AUTO-CI UHF-CCSDT
   Emily Kempfer          : AUTO-CI, RHF CISDT and CCSDT
   Christian Kollmar      : KDIIS, OOCD, Brueckner-CCSD(T), CCSD density, CASPT2, CASPT2-K, improved NEVPT2
   Axel Koslowski         : Symmetry handling
   Simone Kossmann        : Meta GGA functionals, TD-DFT gradient, OOMP2, (MP2 Hessian; deprecated post 5.0)
   Lucas Lang             : DCDCAS
   Marvin Lechner         : AUTO-CI (C++ implementation), FIC-MRCC
   Spencer Leger          : CASSCF response
   Dagmar Lenk            : GEPOL surface, SMD, ORCA-2-JSON
   Dimitrios Liakos       : Extrapolation schemes; Compound Job, initial MDCI parallelization
   Dimitrios Manganas     : Further ROCIS development; embedding schemes. LFT, Crystal Embedding
   Dimitrios Pantazis     : SARC Basis sets
   Anastasios Papadopoulos: AUTO-CI, single reference methods and gradients
   Taras Petrenko         : pre 6.0 DFT Hessian and TD-DFT gradient, (ASA, deprecated), ECA, 1-Electron XAS/XES, NRVS
   Peter Pinski           : DLPNO-MP2, DLPNO-MP2 Gradient
   Christoph Reimann      : Effective Core Potentials
   Marius Retegan         : Local ZFS, SOC
   Christoph Riplinger    : Optimizer, TS searches, QM/MM, DLPNO-CCSD(T), (RO)-DLPNO pert. Triples
   Michael Roemelt        : Original ROCIS implementation
   Masaaki Saitow         : Open-shell DLPNO-CCSD energy and density
   Barbara Sandhoefer     : DKH picture change effects
   Kantharuban Sivalingam : CASSCF convergence/infrastructure, NEVPT2 and variants, FIC-MRCI
   Bernardo de Souza      : ESD, SOC TD-DFT
   Georgi Stoychev        : AutoAux, RI-MP2 NMR, DLPNO-MP2 response, X2C
   Van Anh Tran           : RI-MP2 g-tensors
   Willem Van den Heuvel  : Paramagnetic NMR
   Zikuan Wang            : NOTCH, Electric field optimization 
   Frank Wennmohs         : Technical directorship and infrastructure
   Hang Xu                : AUTO-CI-Response properties 


 We gratefully acknowledge several colleagues who have allowed us to
 interface, adapt or use parts of their codes:
   Stefan Grimme, W. Hujo, H. Kruse, P. Pracht,  : VdW corrections, initial TS optimization,
                  C. Bannwarth, S. Ehlert,         DFT functionals, gCP, sTDA/sTD-DF
                  L. Wittmann, M. Mueller
   Ed Valeev, F. Pavosevic, A. Kumar             : LibInt (2-el integral package), F12 methods
   Garnet Chan, S. Sharma, J. Yang, R. Olivares  : DMRG
   Ulf Ekstrom                                   : XCFun DFT Library
   Mihaly Kallay                                 : mrcc  (arbitrary order and MRCC methods)
   Frank Weinhold                                : gennbo (NPA and NBO analysis)
   Simon Mueller                                 : openCOSMO-RS
   Christopher J. Cramer and Donald G. Truhlar   : smd solvation model
   Lars Goerigk                                  : TD-DFT with DH, B97 family of functionals
   V. Asgeirsson, H. Jonsson                     : NEB implementation
   FAccTs GmbH                                   : IRC, NEB, NEB-TS, DLPNO-Multilevel, CI-OPT
                                                   MM, QMMM, 2- and 3-layer-ONIOM, Crystal-QMMM,
                                                   LR-CPCM, SF, NACMEs, symmetry and pop. for TD-DFT,
                                                   nearIR, NL-DFT gradient (VV10), updates on ESD,
                                                   ML-optimized integration grids, MBIS, APM,
                                                   GOAT, DOCKER, SOLVATOR, interface openCOSMO-RS
   S Lehtola, MJT Oliveira, MAL Marques          : LibXC Library
   Liviu Ungur et al                             : ANISO software


 Your calculation uses the libint2 library for the computation of 2-el integrals
 For citations please refer to: http://libint.valeyev.net

 Your ORCA version has been built with support for libXC version: 6.2.2
 For citations please refer to: https://libxc.gitlab.io

 This ORCA versions uses:
   CBLAS   interface :  Fast vector & matrix operations
   LAPACKE interface :  Fast linear algebra routines
   Shared memory     :  Shared parallel matrices


Warning: RI is on but no J-basis has been assigned. Assigning Def2/J (nothing to worry about!)
================================================================================

----- Orbital basis set information -----
Your calculation utilizes the basis: def2-TZVP
   F. Weigend and R. Ahlrichs, Phys. Chem. Chem. Phys. 7, 3297 (2005).

----- AuxJ basis set information -----
Your calculation utilizes the auxiliary basis: def2/J
   F. Weigend, Phys. Chem. Chem. Phys. 8, 1057 (2006).

================================================================================
                                        WARNINGS
                       Please study these warnings very carefully!
================================================================================


WARNING: Geometry Optimization
  ===> : Switching off AutoStart
         For restart on a previous wavefunction, please use MOREAD

================================================================================
                                       INPUT FILE
================================================================================
NAME = Ibuprofen\Ibuprofen_TPSS_def2-TZVP\Ibuprofen_TPSS_def2-TZVP.orcainp
|  1> # ORCA input file
|  2> # 
|  3> !TPSS def2-TZVP Opt CPCM(WATER)
|  4> * xyz 0 1
|  5>    C        2.95021        -0.38900         1.26274
|  6>    C        2.52045        -1.27848         0.09338
|  7>    C        0.99553        -1.40741         0.07675
|  8>    C        3.03305        -0.73504        -1.25720
|  9>    C        4.54216        -0.63179        -1.32375
| 10>    C        5.34421        -1.77303        -1.21037
| 11>    C        6.73846        -1.66838        -1.22843
| 12>    C        7.36134        -0.42186        -1.38715
| 13>    C        6.55228         0.71875        -1.50569
| 14>    C        5.15995         0.61450        -1.47446
| 15>    C        8.87998        -0.34092        -1.48484
| 16>    C        9.28189         0.24772        -2.84195
| 17>    C        9.61173         0.40524        -0.37163
| 18>    O        8.87745         0.76600         0.70549
| 19>    O       10.81195         0.64384        -0.41318
| 20>    H        2.59304        -0.80141         2.21203
| 21>    H        2.55000         0.62512         1.15790
| 22>    H        4.04024        -0.31777         1.33342
| 23>    H        2.93334        -2.27988         0.25826
| 24>    H        0.51345        -0.43617        -0.07745
| 25>    H        0.63424        -1.81602         1.02656
| 26>    H        0.66784        -2.08146        -0.72144
| 27>    H        2.58341         0.24756        -1.45114
| 28>    H        2.69896        -1.38702        -2.07513
| 29>    H        4.88886        -2.75489        -1.10326
| 30>    H        7.32748        -2.57887        -1.13792
| 31>    H        6.99599         1.70432        -1.63567
| 32>    H        4.56054         1.51848        -1.56984
| 33>    H        9.27510        -1.36482        -1.43749
| 34>    H        8.93076         1.27903        -2.95691
| 35>    H        8.86386        -0.34431        -3.66356
| 36>    H       10.37078         0.26519        -2.96132
| 37>    H        7.93807         0.51129         0.66734
| 38> *
| 39> 
| 40>                          ****END OF INPUT****
================================================================================

                       *****************************
                       * Geometry Optimization Run *
                       *****************************

Geometry optimization settings:
Update method            Update   .... BFGS
Choice of coordinates    CoordSys .... (2022) Redundant Internals
Initial Hessian          InHess   .... Almloef's Model
Max. no of cycles        MaxIter  .... 99

Convergence Tolerances:
Energy Change            TolE     ....  5.0000e-06 Eh
Max. Gradient            TolMAXG  ....  3.0000e-04 Eh/bohr
RMS Gradient             TolRMSG  ....  1.0000e-04 Eh/bohr
Max. Displacement        TolMAXD  ....  4.0000e-03 bohr
RMS Displacement         TolRMSD  ....  2.0000e-03 bohr
Strict Convergence                .... False

------------------------------------------------------------------------------
                        ORCA OPTIMIZATION COORDINATE SETUP
------------------------------------------------------------------------------

The optimization will be done in redundant internal coordinates (2022)
Making redundant internal coordinates   ...  (2022 redundants) done
Evaluating the initial hessian          ...  (Almloef) done
Evaluating the coordinates              ...  done
Calculating the B-matrix                .... done
Calculating the G-matrix                .... done
Diagonalizing the G-matrix              .... done
Small eigenvalue found = 1.019e-02
Small eigenvalue found = 1.799e-02
Small eigenvalue found = 2.497e-02
Small eigenvalue found = 2.537e-02
The first mode is                       ....   64
The number of degrees of freedom        ....   93

    -----------------------------------------------------------------
                    Redundant Internal Coordinates


    -----------------------------------------------------------------
         Definition                    Initial Value    Approx d2E/dq
    -----------------------------------------------------------------
      1. B(C   1,C   0)                  1.5308         0.372513   
      2. B(C   2,C   1)                  1.5305         0.372956   
      3. B(C   3,C   1)                  1.5434         0.355601   
      4. B(C   4,C   3)                  1.5141         0.396044   
      5. B(C   5,C   4)                  1.3995         0.603393   
      6. B(C   6,C   5)                  1.3983         0.606059   
      7. B(C   7,C   6)                  1.4025         0.596772   
      8. B(C   8,C   7)                  1.4034         0.594715   
      9. B(C   9,C   8)                  1.3966         0.609882   
     10. B(C   9,C   4)                  1.3991         0.604147   
     11. B(C  10,C   7)                  1.5239         0.381999   
     12. B(C  11,C  10)                  1.5329         0.369619   
     13. B(C  12,C  10)                  1.5269         0.377842   
     14. B(O  13,C  12)                  1.3526         0.642036   
     15. B(O  14,C  12)                  1.2244         1.028160   
     16. B(H  15,C   0)                  1.0949         0.353677   
     17. B(H  16,C   0)                  1.0953         0.353206   
     18. B(H  17,C   0)                  1.0946         0.354015   
     19. B(H  18,C   1)                  1.0957         0.352693   
     20. B(H  19,C   2)                  1.0952         0.353273   
     21. B(H  20,C   2)                  1.0953         0.353186   
     22. B(H  21,C   2)                  1.0949         0.353661   
     23. B(H  22,C   3)                  1.0979         0.349854   
     24. B(H  23,C   3)                  1.0980         0.349613   
     25. B(H  24,C   5)                  1.0876         0.363294   
     26. B(H  25,C   6)                  1.0882         0.362520   
     27. B(H  26,C   8)                  1.0886         0.361913   
     28. B(H  27,C   9)                  1.0888         0.361640   
     29. B(H  28,C  10)                  1.0985         0.349011   
     30. B(H  29,C  11)                  1.0955         0.352904   
     31. B(H  30,C  11)                  1.0956         0.352796   
     32. B(H  31,C  11)                  1.0956         0.352829   
     33. B(H  32,H  17)                  4.0403         0.000001   
     34. B(H  32,O  13)                  0.9740         0.493805   
     35. A(C   1,C   0,H  15)          110.6012         0.323211   
     36. A(H  15,C   0,H  17)          107.0596         0.289245   
     37. A(C   1,C   0,H  17)          111.5122         0.323262   
     38. A(H  16,C   0,H  17)          108.0467         0.289185   
     39. A(C   1,C   0,H  16)          111.2422         0.323141   
     40. A(H  15,C   0,H  16)          108.2131         0.289141   
     41. A(C   0,C   1,C   3)          111.7539         0.360132   
     42. A(C   2,C   1,H  18)          107.4648         0.323127   
     43. A(C   2,C   1,C   3)          110.5529         0.360205   
     44. A(C   3,C   1,H  18)          109.1678         0.320615   
     45. A(C   0,C   1,H  18)          108.0788         0.323064   
     46. A(C   0,C   1,C   2)          109.6932         0.363072   
     47. A(C   1,C   2,H  19)          111.4324         0.323214   
     48. A(H  20,C   2,H  21)          107.6854         0.289137   
     49. A(C   1,C   2,H  20)          110.5286         0.323201   
     50. A(H  19,C   2,H  21)          108.1533         0.289148   
     51. A(C   1,C   2,H  21)          110.9766         0.323272   
     52. A(H  19,C   2,H  20)          107.9229         0.289087   
     53. A(C   1,C   3,H  23)          109.9811         0.320156   
     54. A(C   4,C   3,H  22)          109.8411         0.325897   
     55. A(H  22,C   3,H  23)          105.9756         0.288188   
     56. A(C   1,C   3,C   4)          113.1722         0.363917   
     57. A(C   1,C   3,H  22)          109.4931         0.320192   
     58. A(C   4,C   3,H  23)          108.1198         0.325860   
     59. A(C   5,C   4,C   9)          118.8196         0.429947   
     60. A(C   3,C   4,C   5)          120.8000         0.398868   
     61. A(C   3,C   4,C   9)          120.3691         0.398956   
     62. A(C   4,C   5,C   6)          120.6219         0.430191   
     63. A(C   6,C   5,H  24)          119.0979         0.352079   
     64. A(C   4,C   5,H  24)          120.2799         0.351817   
     65. A(C   5,C   6,C   7)          120.7185         0.429340   
     66. A(C   7,C   6,H  25)          120.8421         0.351035   
     67. A(C   5,C   6,H  25)          118.4266         0.351952   
     68. A(C   8,C   7,C  10)          121.7292         0.395340   
     69. A(C   6,C   7,C  10)          119.8045         0.395580   
     70. A(C   6,C   7,C   8)          118.4162         0.427888   
     71. A(C   9,C   8,H  26)          118.4633         0.352227   
     72. A(C   7,C   8,C   9)          120.8090         0.429559   
     73. A(C   7,C   8,H  26)          120.7241         0.350731   
     74. A(C   4,C   9,C   8)          120.6042         0.430774   
     75. A(C   4,C   9,H  27)          120.3900         0.351620   
     76. A(C   8,C   9,H  27)          119.0058         0.352182   
     77. A(C   7,C  10,C  11)          109.7811         0.364076   
     78. A(C  12,C  10,H  28)          104.5771         0.323260   
     79. A(C  11,C  10,H  28)          107.5644         0.322096   
     80. A(C   7,C  10,H  28)          107.8285         0.323841   
     81. A(C  11,C  10,C  12)          109.3994         0.363396   
     82. A(C   7,C  10,C  12)          117.1803         0.365449   
     83. A(H  30,C  11,H  31)          107.8271         0.288980   
     84. A(H  29,C  11,H  31)          106.9853         0.288994   
     85. A(C  10,C  11,H  31)          111.2958         0.322671   
     86. A(H  29,C  11,H  30)          107.9222         0.288990   
     87. A(C  10,C  11,H  30)          110.8782         0.322666   
     88. A(C  10,C  11,H  29)          111.7386         0.322682   
     89. A(O  13,C  12,O  14)          120.4769         0.472599   
     90. A(C  10,C  12,O  14)          122.7010         0.432046   
     91. A(C  10,C  12,O  13)          116.7921         0.397365   
     92. A(C  12,O  13,H  32)          114.9996         0.369057   
     93. D(C   3,C   1,C   0,H  15)   -178.9388         0.011084   
     94. D(C   2,C   1,C   0,H  15)     58.0846         0.011084   
     95. D(C   3,C   1,C   0,H  17)    -59.9238         0.011084   
     96. D(C   3,C   1,C   0,H  16)     60.7720         0.011084   
     97. D(C   2,C   1,C   0,H  16)    -62.2046         0.011084   
     98. D(C   2,C   1,C   0,H  17)    177.0996         0.011084   
     99. D(H  19,C   2,C   1,C   3)    -61.3764         0.011109   
    100. D(H  19,C   2,C   1,C   0)     62.3068         0.011109   
    101. D(H  20,C   2,C   1,H  18)     59.5736         0.011109   
    102. D(H  20,C   2,C   1,C   3)    178.6232         0.011109   
    103. D(H  20,C   2,C   1,C   0)    -57.6936         0.011109   
    104. D(H  19,C   2,C   1,H  18)    179.5740         0.011109   
    105. D(C   4,C   3,C   1,H  18)    -59.8720         0.010163   
    106. D(C   4,C   3,C   1,C   0)     59.6290         0.010163   
    107. D(C   4,C   3,C   1,C   2)   -177.8845         0.010163   
    108. D(H  22,C   3,C   1,H  18)    177.2289         0.010163   
    109. D(H  22,C   3,C   1,C   2)     59.2164         0.010163   
    110. D(H  22,C   3,C   1,C   0)    -63.2701         0.010163   
    111. D(C   9,C   4,C   3,C   1)   -116.6358         0.011651   
    112. D(C   5,C   4,C   3,H  23)    -59.9559         0.011651   
    113. D(C   5,C   4,C   3,H  22)   -175.1661         0.011651   
    114. D(C   9,C   4,C   3,H  22)      6.0704         0.011651   
    115. D(C   5,C   4,C   3,C   1)     62.1277         0.011651   
    116. D(H  24,C   5,C   4,C   9)   -179.3297         0.025114   
    117. D(C   6,C   5,C   4,C   9)      0.8878         0.025114   
    118. D(H  24,C   5,C   4,C   3)      1.8880         0.025114   
    119. D(C   6,C   5,C   4,C   3)   -177.8945         0.025114   
    120. D(H  25,C   6,C   5,H  24)      0.2275         0.025349   
    121. D(H  25,C   6,C   5,C   4)   -179.9874         0.025349   
    122. D(C   7,C   6,C   5,C   4)     -1.2790         0.025349   
    123. D(C   7,C   6,C   5,H  24)    178.9360         0.025349   
    124. D(C  10,C   7,C   6,H  25)      2.2118         0.024537   
    125. D(C  10,C   7,C   6,C   5)   -176.4653         0.024537   
    126. D(C   8,C   7,C   6,H  25)    179.6825         0.024537   
    127. D(C   8,C   7,C   6,C   5)      1.0054         0.024537   
    128. D(H  26,C   8,C   7,C  10)     -2.2503         0.024359   
    129. D(H  26,C   8,C   7,C   6)   -179.6698         0.024359   
    130. D(C   9,C   8,C   7,C  10)    177.0407         0.024359   
    131. D(C   9,C   8,C   7,C   6)     -0.3789         0.024359   
    132. D(H  27,C   9,C   8,C   7)   -179.9491         0.025688   
    133. D(C   4,C   9,C   8,H  26)    179.3207         0.025688   
    134. D(C   4,C   9,C   8,C   7)      0.0140         0.025688   
    135. D(H  27,C   9,C   4,C   5)    179.7015         0.025181   
    136. D(H  27,C   9,C   4,C   3)     -1.5108         0.025181   
    137. D(C   8,C   9,C   4,C   5)     -0.2612         0.025181   
    138. D(H  27,C   9,C   8,H  26)     -0.6425         0.025688   
    139. D(C   8,C   9,C   4,C   3)    178.5266         0.025181   
    140. D(H  28,C  10,C   7,C   6)      1.6017         0.010882   
    141. D(C  12,C  10,C   7,C   8)     66.6788         0.010882   
    142. D(C  12,C  10,C   7,C   6)   -115.9367         0.010882   
    143. D(C  11,C  10,C   7,C   8)    -58.8756         0.010882   
    144. D(C  11,C  10,C   7,C   6)    118.5089         0.010882   
    145. D(H  30,C  11,C  10,H  28)     60.2768         0.010923   
    146. D(H  30,C  11,C  10,C  12)    173.3150         0.010923   
    147. D(H  30,C  11,C  10,C   7)    -56.7959         0.010923   
    148. D(H  29,C  11,C  10,H  28)   -179.2822         0.010923   
    149. D(H  29,C  11,C  10,C  12)    -66.2440         0.010923   
    150. D(H  29,C  11,C  10,C   7)     63.6451         0.010923   
    151. D(O  14,C  12,C  10,C  11)    -46.9991         0.010661   
    152. D(O  14,C  12,C  10,C   7)   -172.7429         0.010661   
    153. D(O  13,C  12,C  10,H  28)   -110.0435         0.010661   
    154. D(O  13,C  12,C  10,C  11)    134.9856         0.010661   
    155. D(O  13,C  12,C  10,C   7)      9.2418         0.010661   
    156. D(H  32,O  13,C  12,O  14)   -178.0530         0.030404   
    157. D(H  32,O  13,C  12,C  10)      0.0092         0.030404   
    -----------------------------------------------------------------

Number of atoms                         .... 33
Number of degrees of freedom            .... 157


         *************************************************************
         *                GEOMETRY OPTIMIZATION CYCLE   1            *
         *************************************************************
---------------------------------
CARTESIAN COORDINATES (ANGSTROEM)
---------------------------------
  C      2.950210   -0.389000    1.262740
  C      2.520450   -1.278480    0.093380
  C      0.995530   -1.407410    0.076750
  C      3.033050   -0.735040   -1.257200
  C      4.542160   -0.631790   -1.323750
  C      5.344210   -1.773030   -1.210370
  C      6.738460   -1.668380   -1.228430
  C      7.361340   -0.421860   -1.387150
  C      6.552280    0.718750   -1.505690
  C      5.159950    0.614500   -1.474460
  C      8.879980   -0.340920   -1.484840
  C      9.281890    0.247720   -2.841950
  C      9.611730    0.405240   -0.371630
  O      8.877450    0.766000    0.705490
  O     10.811950    0.643840   -0.413180
  H      2.593040   -0.801410    2.212030
  H      2.550000    0.625120    1.157900
  H      4.040240   -0.317770    1.333420
  H      2.933340   -2.279880    0.258260
  H      0.513450   -0.436170   -0.077450
  H      0.634240   -1.816020    1.026560
  H      0.667840   -2.081460   -0.721440
  H      2.583410    0.247560   -1.451140
  H      2.698960   -1.387020   -2.075130
  H      4.888860   -2.754890   -1.103260
  H      7.327480   -2.578870   -1.137920
  H      6.995990    1.704320   -1.635670
  H      4.560540    1.518480   -1.569840
  H      9.275100   -1.364820   -1.437490
  H      8.930760    1.279030   -2.956910
  H      8.863860   -0.344310   -3.663560
  H     10.370780    0.265190   -2.961320
  H      7.938070    0.511290    0.667340

----------------------------
CARTESIAN COORDINATES (A.U.)
----------------------------
  NO LB      ZA    FRAG     MASS         X           Y           Z
   0 C     6.0000    0    12.011    5.575089   -0.735103    2.386233
   1 C     6.0000    0    12.011    4.762960   -2.415977    0.176463
   2 C     6.0000    0    12.011    1.881279   -2.659619    0.145036
   3 C     6.0000    0    12.011    5.731634   -1.389024   -2.375764
   4 C     6.0000    0    12.011    8.583438   -1.193910   -2.501525
   5 C     6.0000    0    12.011   10.099093   -3.350541   -2.287268
   6 C     6.0000    0    12.011   12.733844   -3.152781   -2.321396
   7 C     6.0000    0    12.011   13.910917   -0.797200   -2.621334
   8 C     6.0000    0    12.011   12.382015    1.358241   -2.845342
   9 C     6.0000    0    12.011    9.750892    1.161237   -2.786326
  10 C     6.0000    0    12.011   16.780730   -0.644245   -2.805941
  11 C     6.0000    0    12.011   17.540230    0.468123   -5.370507
  12 C     6.0000    0    12.011   18.163537    0.765793   -0.702279
  13 O     8.0000    0    15.999   16.775949    1.447530    1.333183
  14 O     8.0000    0    15.999   20.431624    1.216681   -0.780797
  15 H     1.0000    0     1.008    4.900135   -1.514445    4.180131
  16 H     1.0000    0     1.008    4.818802    1.181306    2.188114
  17 H     1.0000    0     1.008    7.634947   -0.600498    2.519799
  18 H     1.0000    0     1.008    5.543209   -4.308349    0.488041
  19 H     1.0000    0     1.008    0.970280   -0.824242   -0.146359
  20 H     1.0000    0     1.008    1.198540   -3.431780    1.939917
  21 H     1.0000    0     1.008    1.262035   -3.933389   -1.363324
  22 H     1.0000    0     1.008    4.881937    0.467821   -2.742257
  23 H     1.0000    0     1.008    5.100295   -2.621088   -3.921427
  24 H     1.0000    0     1.008    9.238607   -5.205988   -2.084859
  25 H     1.0000    0     1.008   13.846930   -4.873358   -2.150357
  26 H     1.0000    0     1.008   13.220505    3.220698   -3.090968
  27 H     1.0000    0     1.008    8.618172    2.869511   -2.966568
  28 H     1.0000    0     1.008   17.527399   -2.579136   -2.716462
  29 H     1.0000    0     1.008   16.876691    2.417016   -5.587750
  30 H     1.0000    0     1.008   16.750268   -0.650652   -6.923125
  31 H     1.0000    0     1.008   19.597934    0.501136   -5.596084
  32 H     1.0000    0     1.008   15.000778    0.966198    1.261090

--------------------------------
INTERNAL COORDINATES (ANGSTROEM)
--------------------------------
 C      0   0   0     0.000000000000     0.00000000     0.00000000
 C      1   0   0     1.530774685445     0.00000000     0.00000000
 C      2   1   0     1.530451079976   109.69319757     0.00000000
 C      2   1   3     1.543422213783   111.75390370   122.97659260
 C      4   2   1     1.514101204378   113.17224034    59.62897433
 C      5   4   2     1.399488465297   120.80003733    62.12774448
 C      6   5   4     1.398288542684   120.62185491   182.10546629
 C      7   6   5     1.402491940512   120.71853495   358.72101334
 C      8   7   6     1.403431860583   118.41616767     1.00540452
 C      9   8   7     1.396576601658   120.80897981   359.62112357
 C      8   7   6     1.523929811146   119.80454381   183.53472139
 C     11   8   7     1.532897990670   109.78111772   118.50890178
 C     11   8   7     1.526908416442   117.18028431   244.06325010
 O     13  11   8     1.352590991542   116.79212193     9.24179940
 O     13  11   8     1.224411863263   122.70096910   187.25713881
 H      1   2   3     1.094899046077   110.60116628    58.08460252
 H      1   2   3     1.095261997926   111.24215826   297.79538611
 H      1   2   3     1.094639107743   111.51224075   177.09963316
 H      2   1   3     1.095657577211   108.07878105   243.11782334
 H      3   2   1     1.095210438226   111.43237591    62.30681607
 H      3   2   1     1.095276966023   110.52860221   302.30640348
 H      3   2   1     1.094911601318   110.97655958   182.90158328
 H      4   2   1     1.097857738143   109.49312922   296.72986935
 H      4   2   1     1.098045323928   109.98113291   180.66617580
 H      6   5   4     1.087596080445   120.27986322     1.88797466
 H      7   6   5     1.088176759814   118.42658827   180.01256479
 H      9   8   7     1.088632899282   120.72408072   180.33017648
 H     10   9   8     1.088838616554   119.00576528   180.05085388
 H     11   8   7     1.098514017617   107.82851498     1.60169337
 H     12  11   8     1.095494589033   111.73864193    63.64514186
 H     12  11   8     1.095578200723   110.87819736   303.20408023
 H     12  11   8     1.095552750852   111.29575597   183.18075441
 H     14  13  11     0.974046914168   114.99964197     0.00000000

---------------------------
INTERNAL COORDINATES (A.U.)
---------------------------
 C      0   0   0     0.000000000000     0.00000000     0.00000000
 C      1   0   0     2.892744928231     0.00000000     0.00000000
 C      2   1   0     2.892133402519   109.69319757     0.00000000
 C      2   1   3     2.916645293061   111.75390370   122.97659260
 C      4   2   1     2.861236615315   113.17224034    59.62897433
 C      5   4   2     2.644649926994   120.80003733    62.12774448
 C      6   5   4     2.642382401872   120.62185491   182.10546629
 C      7   6   5     2.650325672599   120.71853495   358.72101334
 C      8   7   6     2.652101864122   118.41616767     1.00540452
 C      9   8   7     2.639147302177   120.80897981   359.62112357
 C      8   7   6     2.879809990385   119.80454381   183.53472139
 C     11   8   7     2.896757393604   109.78111772   118.50890178
 C     11   8   7     2.885438738654   117.18028431   244.06325010
 O     13  11   8     2.556026545223   116.79212193     9.24179940
 O     13  11   8     2.313803096692   122.70096910   187.25713881
 H      1   2   3     2.069059341377   110.60116628    58.08460252
 H      1   2   3     2.069745220971   111.24215826   297.79538611
 H      1   2   3     2.068568129114   111.51224075   177.09963316
 H      2   1   3     2.070492757485   108.07878105   243.11782334
 H      3   2   1     2.069647787260   111.43237591    62.30681607
 H      3   2   1     2.069773506575   110.52860221   302.30640348
 H      3   2   1     2.069083067344   110.97655958   182.90158328
 H      4   2   1     2.074650459096   109.49312922   296.72986935
 H      4   2   1     2.075004944857   109.98113291   180.66617580
 H      6   5   4     2.055258736368   120.27986322     1.88797466
 H      7   6   5     2.056356061347   118.42658827   180.01256479
 H      9   8   7     2.057218040020   120.72408072   180.33017648
 H     10   9   8     2.057606789325   119.00576528   180.05085388
 H     11   8   7     2.075890647569   107.82851498     1.60169337
 H     12  11   8     2.070184754464   111.73864193    63.64514186
 H     12  11   8     2.070342757661   110.87819736   303.20408023
 H     12  11   8     2.070294664375   111.29575597   183.18075441
 H     14  13  11     1.840681909368   114.99964197     0.00000000

---------------------
BASIS SET INFORMATION
---------------------
There are 3 groups of distinct atoms

 Group   1 Type C   : 11s6p2d1f contracted to 5s3p2d1f pattern {62111/411/11/1}
 Group   2 Type O   : 11s6p2d1f contracted to 5s3p2d1f pattern {62111/411/11/1}
 Group   3 Type H   : 5s1p contracted to 3s1p pattern {311/1}

Atom   0C    basis set group =>   1
Atom   1C    basis set group =>   1
Atom   2C    basis set group =>   1
Atom   3C    basis set group =>   1
Atom   4C    basis set group =>   1
Atom   5C    basis set group =>   1
Atom   6C    basis set group =>   1
Atom   7C    basis set group =>   1
Atom   8C    basis set group =>   1
Atom   9C    basis set group =>   1
Atom  10C    basis set group =>   1
Atom  11C    basis set group =>   1
Atom  12C    basis set group =>   1
Atom  13O    basis set group =>   2
Atom  14O    basis set group =>   2
Atom  15H    basis set group =>   3
Atom  16H    basis set group =>   3
Atom  17H    basis set group =>   3
Atom  18H    basis set group =>   3
Atom  19H    basis set group =>   3
Atom  20H    basis set group =>   3
Atom  21H    basis set group =>   3
Atom  22H    basis set group =>   3
Atom  23H    basis set group =>   3
Atom  24H    basis set group =>   3
Atom  25H    basis set group =>   3
Atom  26H    basis set group =>   3
Atom  27H    basis set group =>   3
Atom  28H    basis set group =>   3
Atom  29H    basis set group =>   3
Atom  30H    basis set group =>   3
Atom  31H    basis set group =>   3
Atom  32H    basis set group =>   3
---------------------------------
AUXILIARY/J BASIS SET INFORMATION
---------------------------------
There are 3 groups of distinct atoms

 Group   1 Type C   : 12s5p4d2f1g contracted to 6s4p3d1f1g pattern {711111/2111/211/2/1}
 Group   2 Type O   : 12s5p4d2f1g contracted to 6s4p3d1f1g pattern {711111/2111/211/2/1}
 Group   3 Type H   : 5s2p1d contracted to 3s1p1d pattern {311/2/1}

Atom   0C    basis set group =>   1
Atom   1C    basis set group =>   1
Atom   2C    basis set group =>   1
Atom   3C    basis set group =>   1
Atom   4C    basis set group =>   1
Atom   5C    basis set group =>   1
Atom   6C    basis set group =>   1
Atom   7C    basis set group =>   1
Atom   8C    basis set group =>   1
Atom   9C    basis set group =>   1
Atom  10C    basis set group =>   1
Atom  11C    basis set group =>   1
Atom  12C    basis set group =>   1
Atom  13O    basis set group =>   2
Atom  14O    basis set group =>   2
Atom  15H    basis set group =>   3
Atom  16H    basis set group =>   3
Atom  17H    basis set group =>   3
Atom  18H    basis set group =>   3
Atom  19H    basis set group =>   3
Atom  20H    basis set group =>   3
Atom  21H    basis set group =>   3
Atom  22H    basis set group =>   3
Atom  23H    basis set group =>   3
Atom  24H    basis set group =>   3
Atom  25H    basis set group =>   3
Atom  26H    basis set group =>   3
Atom  27H    basis set group =>   3
Atom  28H    basis set group =>   3
Atom  29H    basis set group =>   3
Atom  30H    basis set group =>   3
Atom  31H    basis set group =>   3
Atom  32H    basis set group =>   3
------------------------------------------------------------------------------
                             ORCA STARTUP CALCULATIONS
                           -- RI-GTO INTEGRALS CHOSEN --
------------------------------------------------------------------------------
------------------------------------------------------------------------------
                   ___                                                        
                  /   \      - P O W E R E D   B Y -                         
                 /     \                                                     
                 |  |  |   _    _      __       _____    __    __             
                 |  |  |  | |  | |    /  \     |  _  \  |  |  /  |          
                  \  \/   | |  | |   /    \    | | | |  |  | /  /          
                 / \  \   | |__| |  /  /\  \   | |_| |  |  |/  /          
                |  |  |   |  __  | /  /__\  \  |    /   |      \           
                |  |  |   | |  | | |   __   |  |    \   |  |\   \          
                \     /   | |  | | |  |  |  |  | |\  \  |  | \   \       
                 \___/    |_|  |_| |__|  |__|  |_| \__\ |__|  \__/        
                                                                              
                      - O R C A' S   B I G   F R I E N D -                    
                                      &                                       
                       - I N T E G R A L  F E E D E R -                       
                                                                              
 v1 FN, 2020, v2 2021, v3 2022-2024                                           
------------------------------------------------------------------------------


----------------------
SHARK INTEGRAL PACKAGE
----------------------

Number of atoms                             ...     33
Number of basis functions                   ...    573
Number of shells                            ...    237
Maximum angular momentum                    ...      3
Integral batch strategy                     ... SHARK/LIBINT Hybrid
RI-J (if used) integral strategy            ... SPLIT-RIJ (Revised 2003 algorithm where possible)
Printlevel                                  ...      1
Contraction scheme used                     ... SEGMENTED contraction
Prescreening option                         ... SCHWARTZ
   Thresh                                   ... 2.500e-11
   Tcut                                     ... 2.500e-12
   Tpresel                                  ... 2.500e-12 
Coulomb Range Separation                    ... NOT USED
Exchange Range Separation                   ... NOT USED
Multipole approximations                    ... NOT USED
Finite Nucleus Model                        ... NOT USED
CABS basis                                  ... NOT available
Auxiliary Coulomb fitting basis             ... AVAILABLE
   # of basis functions in Aux-J            ...    933
   # of shells in Aux-J                     ...    315
   Maximum angular momentum in Aux-J        ...      4
Auxiliary J/K fitting basis                 ... NOT available
Auxiliary Correlation fitting basis         ... NOT available
Auxiliary 'external' fitting basis          ... NOT available

Checking pre-screening integrals            ... done (  0.0 sec) Dimension = 237
Check shell pair data                       ... done (  0.0 sec)
Shell pair information
Shell pair cut-off parameter TPreSel        ...   2.5e-12
Total number of shell pairs                 ...     28203
Shell pairs after pre-screening             ...     21418
Total number of primitive shell pairs       ...     83820
Primitive shell pairs kept                  ...     44574
          la=0 lb=0:   6201 shell pairs
          la=1 lb=0:   6326 shell pairs
          la=1 lb=1:   1632 shell pairs
          la=2 lb=0:   2911 shell pairs
          la=2 lb=1:   1474 shell pairs
          la=2 lb=2:    357 shell pairs
          la=3 lb=0:   1389 shell pairs
          la=3 lb=1:    716 shell pairs
          la=3 lb=2:    323 shell pairs
          la=3 lb=3:     89 shell pairs

Calculating one electron integrals          ... done (  0.1 sec)
Calculating RI/J V-Matrix + Cholesky decomp.... done (  0.0 sec)
Calculating Nuclear repulsion               ... done (  0.0 sec) ENN=    969.196472731820 Eh

Diagonalization of the overlap matrix:
Smallest eigenvalue                        ... 6.620e-06
Time for diagonalization                   ...    0.021 sec
Threshold for overlap eigenvalues          ... 1.000e-07
Number of eigenvalues below threshold      ... 0
Time for construction of square roots      ...    0.015 sec
Total time needed                          ...    0.038 sec

-------------------
DFT GRID GENERATION
-------------------

General Integration Accuracy     IntAcc      ... 4.388
Radial Grid Type                 RadialGrid  ... OptM3 with GC (2021)
Angular Grid (max. ang.)         AngularGrid ... 4 (Lebedev-302)
Angular grid pruning method      GridPruning ... 4 (adaptive)
Weight generation scheme         WeightScheme... mBecke (2022)
Basis function cutoff            BFCut       ... 1.0000e-11
Integration weight cutoff        WCut        ... 1.0000e-14
Partially contracted basis set               ... off
Rotationally invariant grid construction     ... off
Angular grids for H and He will be reduced by one unit

Total number of grid points                  ...   146920
Total number of batches                      ...     2310
Average number of points per batch           ...       63
Average number of grid points per atom       ...     4452
Initializing property integral containers    ... done (  0.0 sec)

SHARK setup successfully completed in   1.3 seconds

Maximum memory used throughout the entire STARTUP-calculation: 97.1 MB
-------------------------------------------------------------------------------
                                 ORCA GUESS
                   Start orbitals & Density for SCF / CASSCF
-------------------------------------------------------------------------------

------------
SCF SETTINGS
------------
Hamiltonian:
 Density Functional     Method          .... DFT(GTOs)
 Exchange Functional    Exchange        .... TPSS
 Correlation Functional Correlation     .... TPSS
 LDA part of GGA corr.  LDAOpt          .... PW91-LDA
 Gradients option       PostSCFGGA      .... off
   NL short-range parameter             ....  5.000000
 RI-approximation to the Coulomb term is turned on
   Number of AuxJ basis functions       .... 933


General Settings:
 Integral files         IntName         .... Ibuprofen\Ibuprofen_TPSS_def2-TZVP\Ibuprofen_TPSS_def2-TZVP.orcainp
 Hartree-Fock type      HFTyp           .... RHF
 Total Charge           Charge          ....    0
 Multiplicity           Mult            ....    1
 Number of Electrons    NEL             ....  112
 Basis Dimension        Dim             ....  573
 Nuclear Repulsion      ENuc            ....    969.1964727318 Eh

Convergence Acceleration:
 AO-DIIS                CNVDIIS         .... on
   Start iteration      DIISMaxIt       ....    12
   Startup error        DIISStart       ....  0.200000
   # of expansion vecs  DIISMaxEq       ....     5
   Bias factor          DIISBfac        ....   1.050
   Max. coefficient     DIISMaxC        ....  10.000
 MO-DIIS                CNVKDIIS        .... off
 Trust-Rad. Augm. Hess. CNVTRAH         .... auto
   Auto Start mean grad. ratio tolernc. ....  1.125000
   Auto Start start iteration           ....    50
   Auto Start num. interpolation iter.  ....    10
   Max. Number of Micro iterations      ....    24
   Max. Number of Macro iterations      .... Maxiter - #DIIS iter
   Number of Davidson start vectors     ....     2
   Converg. threshold    (grad. norm)   ....   1.000e-05
   Grad. Scal. Fac. for Micro threshold ....   0.100
   Minimum threshold for Micro iter.    ....   1.000e-02
   NR start threshold (gradient norm)   ....   1.000e-04
   Initial trust radius                 ....   0.400
   Minimum AH scaling param. (alpha)    ....   1.000
   Maximum AH scaling param. (alpha)    .... 1000.000
   Quad. conv. algorithm                .... NR
   White noise on init. David. guess    .... on
   Maximum white noise                  ....   0.010
   Pseudo random numbers                .... off
   Inactive MOs                         .... canonical
   Orbital update algorithm             .... Taylor
   Preconditioner                       .... Diag
   Full preconditioner red. dimension   ....   250
 SOSCF                  CNVSOSCF        .... on
   Start iteration      SOSCFMaxIt      ....   150
   Startup grad/error   SOSCFStart      ....  0.003300
   Hessian update       SOSCFHessUp     .... L-BFGS
 Level Shifting         CNVShift        .... on
   Level shift para.    LevelShift      ....    0.2500
   Turn off err/grad.   ShiftErr        ....    0.0010
 Zerner damping         CNVZerner       .... off
 Static damping         CNVDamp         .... on
   Fraction old density DampFac         ....    0.7000
   Max. Damping (<1)    DampMax         ....    0.9800
   Min. Damping (>=0)   DampMin         ....    0.0000
   Turn off err/grad.   DampErr         ....    0.1000

SCF Procedure:
 Maximum # iterations   MaxIter         ....   125
 SCF integral mode      SCFMode         .... Direct
   Integral package                     .... SHARK and LIBINT hybrid scheme
 Reset frequency        DirectResetFreq ....    20
 Integral Threshold     Thresh          ....  2.500e-11 Eh
 Primitive CutOff       TCut            ....  2.500e-12 Eh

Convergence Tolerance:
 Convergence Check Mode ConvCheckMode   .... Total+1el-Energy
 Convergence forced     ConvForced      .... 0
 Energy Change          TolE            ....  1.000e-08 Eh
 1-El. energy change                    ....  1.000e-05 Eh
 Orbital Gradient       TolG            ....  1.000e-05
 Orbital Rotation angle TolX            ....  1.000e-05
 DIIS Error             TolErr          ....  5.000e-07

------------------------------
INITIAL GUESS: MODEL POTENTIAL
------------------------------
Loading Hartree-Fock densities                     ... done
Calculating cut-offs                               ... done
Initializing the effective Hamiltonian             ... done
Setting up the integral package (SHARK)            ... done
Starting the Coulomb interaction                   ... done (   0.6 sec)
Making the grid                                    ... done (   0.3 sec)
Mapping shells                                     ... done
Starting the XC term evaluation                    ... done (   0.8 sec)
  promolecular density results
     # of electrons  =    111.995808163
     EX              =    -88.096107445
     EC              =     -3.713884996
     EX+EC           =    -91.809992441
Transforming the Hamiltonian                       ... done (   0.0 sec)
Diagonalizing the Hamiltonian                      ... done (   0.0 sec)
Back transforming the eigenvectors                 ... done (   0.0 sec)
Now organizing SCF variables                       ... done
                      ------------------
                      INITIAL GUESS DONE (   1.8 sec)
                      ------------------
             **** ENERGY FILE WAS UPDATED (Ibuprofen\Ibuprofen_TPSS_def2-TZVP\Ibuprofen_TPSS_def2-TZVP.orcainp.en.tmp) ****
Finished Guess after   1.9 sec
Maximum memory used throughout the entire GUESS-calculation: 68.1 MB

-------------------------------------------------------------------------------------------
                                      ORCA LEAN-SCF
                              memory conserving SCF solver
-------------------------------------------------------------------------------------------

--------------------
CPCM SOLVATION MODEL
--------------------
CPCM parameters:
  Epsilon                                         ...      80.1510
  Refrac                                          ...       1.3328
  Rsolv                                           ...       1.3000
  Surface type                                    ... GAUSSIAN VDW
  Discretization scheme                           ... Constant charge density
    Threshold for H atoms                         ...       5.0000 (charges/Ang^2)
    Threshold for non-H atoms                     ...       5.0000 (charges/Ang^2)
  Epsilon function type                           ...         CPCM
Solvent:                                          ... WATER
Radii:
  Scheme                                          ... Element-dependent radii
  Radius for C  used is    3.8550 Bohr (=   2.0400 Ang.)
  Radius for O  used is    3.4469 Bohr (=   1.8240 Ang.)
  Radius for H  used is    2.4944 Bohr (=   1.3200 Ang.)
Calculating surface                               ...        done! (  0.0s)
Cavity surface points                             ...         2777
Cavity Volume                                     ...    1837.0921
Cavity Surface-area                               ...     985.9078
Calculating surface distance matrix               ...        done! (  0.0s)
Performing Cholesky decomposition & store         ...        done! (  0.2s)
Overall time for CPCM initialization              ...                 0.2s

----------------------------------------D-I-I-S--------------------------------------------
Iteration    Energy (Eh)           Delta-E    RMSDP     MaxDP     DIISErr   Damp  Time(sec)
-------------------------------------------------------------------------------------------
               ***  Starting incremental Fock matrix formation  ***
    1    -656.6314292158789385     0.00e+00  1.59e-03  2.84e-01  2.72e-01  0.700   8.9
    2    -656.8414528337344791    -2.10e-01  1.24e-03  2.29e-01  8.86e-02  0.700   7.8
                               ***Turning on AO-DIIS***
    3    -656.9147476499389313    -7.33e-02  4.87e-04  3.33e-02  2.74e-02  0.700   7.5
    4    -656.9596477453543457    -4.49e-02  8.86e-04  5.28e-02  1.42e-02  0.000   7.1
    5    -657.0601354492340533    -1.00e-01  2.88e-04  5.39e-02  6.56e-03  0.000   7.3
                              *** Initializing SOSCF ***
---------------------------------------S-O-S-C-F--------------------------------------
Iteration    Energy (Eh)           Delta-E    RMSDP     MaxDP     MaxGrad    Time(sec)
--------------------------------------------------------------------------------------
    6    -657.0609955488790774    -8.60e-04  1.19e-04  1.24e-02  2.42e-03     6.8
               *** Restarting incremental Fock matrix formation ***
    7    -657.0610467067932632    -5.12e-05  9.35e-05  1.39e-02  6.04e-04     8.6
    8    -657.0610090644053116     3.76e-05  3.62e-05  5.17e-03  1.62e-03     6.2
    9    -657.0610577952082849    -4.87e-05  1.20e-05  7.14e-04  8.67e-05     5.9
   10    -657.0610564747336184     1.32e-06  5.04e-06  2.83e-04  1.53e-04     5.9
   11    -657.0610584214713299    -1.95e-06  5.81e-06  7.91e-04  3.96e-05     5.7
   12    -657.0610582846173884     1.37e-07  2.57e-06  4.30e-04  6.66e-05     5.6
   13    -657.0610584950417206    -2.10e-07  2.26e-06  2.51e-04  8.23e-06     5.4
   14    -657.0610584927220543     2.32e-09  1.98e-06  1.36e-04  1.31e-05     5.1
                 **** Energy Check signals convergence ****

               *****************************************************
               *                     SUCCESS                       *
               *           SCF CONVERGED AFTER  14 CYCLES          *
               *****************************************************

             **** ENERGY FILE WAS UPDATED (Ibuprofen\Ibuprofen_TPSS_def2-TZVP\Ibuprofen_TPSS_def2-TZVP.orcainp.en.tmp) ****

----------------
TOTAL SCF ENERGY
----------------

Total Energy       :       -657.06105849272205 Eh          -17879.54038 eV

Components:
Nuclear Repulsion  :        969.19647273182011 Eh           26373.17681 eV
Electronic Energy  :      -1626.23900734753420 Eh          -44252.21313 eV
One Electron Energy:      -2813.00225290516801 Eh          -76545.68281 eV
Two Electron Energy:       1186.76324555763381 Eh           32293.46968 eV
CPCM Dielectric    :         -0.01852387700794 Eh              -0.50406 eV

Virial components:
Potential Energy   :      -1311.03092972909826 Eh          -35674.96528 eV
Kinetic Energy     :        653.96987123637632 Eh           17795.42490 eV
Virial Ratio       :          2.00472680377538

DFT components:
N(Alpha)           :       55.999990334027 electrons
N(Beta)            :       55.999990334027 electrons
N(Total)           :      111.999980668053 electrons
E(X)               :      -91.019463555542 Eh       
E(C)               :       -3.716614938500 Eh       
E(XC)              :      -94.736078494041 Eh       

CPCM Solvation Model Properties:
Surface-charge          :         -0.03306359582471
Corrected charge        :         -0.00000000000000
Outlying charge corr.   :          0.00006374590622 Eh               0.00173 eV
Free-energy (cav+disp)  :  This term is not implemented in the current solvation scheme

---------------
SCF CONVERGENCE
---------------

  Last Energy change         ...   -2.3197e-09  Tolerance :   1.0000e-08
  Last MAX-Density change    ...    1.3642e-04  Tolerance :   1.0000e-07
  Last RMS-Density change    ...    1.9809e-06  Tolerance :   5.0000e-09
  Last DIIS Error            ...    2.4187e-03  Tolerance :   5.0000e-07
  Last Orbital Gradient      ...    1.3050e-05  Tolerance :   1.0000e-05
  Last Orbital Rotation      ...    2.2224e-05  Tolerance :   1.0000e-05


----------------
ORBITAL ENERGIES
----------------

  NO   OCC          E(Eh)            E(eV) 
   0   2.0000     -18.933315      -515.2017 
   1   2.0000     -18.877988      -513.6962 
   2   2.0000     -10.119964      -275.3782 
   3   2.0000     -10.013520      -272.4817 
   4   2.0000     -10.001275      -272.1485 
   5   2.0000      -9.994209      -271.9562 
   6   2.0000      -9.991892      -271.8932 
   7   2.0000      -9.991494      -271.8824 
   8   2.0000      -9.987750      -271.7805 
   9   2.0000      -9.987434      -271.7719 
  10   2.0000      -9.984991      -271.7054 
  11   2.0000      -9.982249      -271.6308 
  12   2.0000      -9.981403      -271.6078 
  13   2.0000      -9.967945      -271.2416 
  14   2.0000      -9.967087      -271.2182 
  15   2.0000      -1.032323       -28.0909 
  16   2.0000      -0.953712       -25.9518 
  17   2.0000      -0.804908       -21.9027 
  18   2.0000      -0.759339       -20.6627 
  19   2.0000      -0.735160       -20.0047 
  20   2.0000      -0.691769       -18.8240 
  21   2.0000      -0.685645       -18.6573 
  22   2.0000      -0.626548       -17.0492 
  23   2.0000      -0.623951       -16.9786 
  24   2.0000      -0.604963       -16.4619 
  25   2.0000      -0.569701       -15.5023 
  26   2.0000      -0.561171       -15.2702 
  27   2.0000      -0.536935       -14.6108 
  28   2.0000      -0.508912       -13.8482 
  29   2.0000      -0.481573       -13.1043 
  30   2.0000      -0.453298       -12.3349 
  31   2.0000      -0.431903       -11.7527 
  32   2.0000      -0.416231       -11.3262 
  33   2.0000      -0.413604       -11.2547 
  34   2.0000      -0.406858       -11.0712 
  35   2.0000      -0.403633       -10.9834 
  36   2.0000      -0.392258       -10.6739 
  37   2.0000      -0.386405       -10.5146 
  38   2.0000      -0.378401       -10.2968 
  39   2.0000      -0.368126       -10.0172 
  40   2.0000      -0.361420        -9.8347 
  41   2.0000      -0.347908        -9.4671 
  42   2.0000      -0.341287        -9.2869 
  43   2.0000      -0.332565        -9.0496 
  44   2.0000      -0.326491        -8.8843 
  45   2.0000      -0.325327        -8.8526 
  46   2.0000      -0.316517        -8.6129 
  47   2.0000      -0.303681        -8.2636 
  48   2.0000      -0.301082        -8.1929 
  49   2.0000      -0.292048        -7.9470 
  50   2.0000      -0.287098        -7.8123 
  51   2.0000      -0.285275        -7.7627 
  52   2.0000      -0.277928        -7.5628 
  53   2.0000      -0.249058        -6.7772 
  54   2.0000      -0.233508        -6.3541 
  55   2.0000      -0.216986        -5.9045 
  56   0.0000      -0.044767        -1.2182 
  57   0.0000      -0.040595        -1.1047 
  58   0.0000      -0.034944        -0.9509 
  59   0.0000       0.021820         0.5937 
  60   0.0000       0.036943         1.0053 
  61   0.0000       0.049560         1.3486 
  62   0.0000       0.054264         1.4766 
  63   0.0000       0.062657         1.7050 
  64   0.0000       0.068505         1.8641 
  65   0.0000       0.072717         1.9787 
  66   0.0000       0.079886         2.1738 
*Only the first 10 virtual orbitals were printed.

                    ********************************
                    * MULLIKEN POPULATION ANALYSIS *
                    ********************************

-----------------------
MULLIKEN ATOMIC CHARGES
-----------------------
   0 C :   -0.386519
   1 C :   -0.023007
   2 C :   -0.364153
   3 C :   -0.173700
   4 C :    0.139826
   5 C :   -0.213774
   6 C :   -0.195289
   7 C :   -0.044734
   8 C :   -0.198939
   9 C :   -0.166061
  10 C :    0.125685
  11 C :   -0.404603
  12 C :    0.238393
  13 O :   -0.341616
  14 O :   -0.375597
  15 H :    0.121802
  16 H :    0.109349
  17 H :    0.129044
  18 H :    0.077079
  19 H :    0.111985
  20 H :    0.121449
  21 H :    0.117461
  22 H :    0.110357
  23 H :    0.104521
  24 H :    0.124021
  25 H :    0.123744
  26 H :    0.128993
  27 H :    0.120800
  28 H :    0.110968
  29 H :    0.135435
  30 H :    0.135313
  31 H :    0.131574
  32 H :    0.370193
Sum of atomic charges:   -0.0000000

--------------------------------
MULLIKEN REDUCED ORBITAL CHARGES
--------------------------------
  0 C s       :     3.241758  s :     3.241758
      pz      :     1.000199  p :     3.077717
      px      :     1.059883
      py      :     1.017636
      dz2     :     0.020656  d :     0.062489
      dxz     :     0.008986
      dyz     :     0.007884
      dx2y2   :     0.017998
      dxy     :     0.006964
      f0      :     0.000584  f :     0.004554
      f+1     :     0.000760
      f-1     :     0.001071
      f+2     :     0.000512
      f-2     :     0.000510
      f+3     :     0.000892
      f-3     :     0.000225

  1 C s       :     3.125405  s :     3.125405
      pz      :     0.890828  p :     2.745314
      px      :     0.908600
      py      :     0.945886
      dz2     :     0.035728  d :     0.143593
      dxz     :     0.032477
      dyz     :     0.022056
      dx2y2   :     0.026241
      dxy     :     0.027090
      f0      :     0.001823  f :     0.008695
      f+1     :     0.001035
      f-1     :     0.001312
      f+2     :     0.001570
      f-2     :     0.000806
      f+3     :     0.001010
      f-3     :     0.001139

  2 C s       :     3.234801  s :     3.234801
      pz      :     1.058914  p :     3.061715
      px      :     0.944596
      py      :     1.058205
      dz2     :     0.008464  d :     0.063020
      dxz     :     0.017214
      dyz     :     0.008575
      dx2y2   :     0.006725
      dxy     :     0.022042
      f0      :     0.000453  f :     0.004618
      f+1     :     0.000578
      f-1     :     0.000855
      f+2     :     0.000643
      f-2     :     0.000268
      f+3     :     0.000970
      f-3     :     0.000851

  3 C s       :     3.154142  s :     3.154142
      pz      :     0.970276  p :     2.920448
      px      :     0.913160
      py      :     1.037012
      dz2     :     0.016067  d :     0.092784
      dxz     :     0.025344
      dyz     :     0.016680
      dx2y2   :     0.014951
      dxy     :     0.019742
      f0      :     0.001079  f :     0.006326
      f+1     :     0.000840
      f-1     :     0.001048
      f+2     :     0.000977
      f-2     :     0.000484
      f+3     :     0.001013
      f-3     :     0.000886

  4 C s       :     3.151399  s :     3.151399
      pz      :     0.912695  p :     2.560910
      px      :     0.809831
      py      :     0.838383
      dz2     :     0.007646  d :     0.137672
      dxz     :     0.024312
      dyz     :     0.021337
      dx2y2   :     0.046247
      dxy     :     0.038129
      f0      :     0.001565  f :     0.010193
      f+1     :     0.000780
      f-1     :     0.000641
      f+2     :     0.000953
      f-2     :     0.001191
      f+3     :     0.001591
      f-3     :     0.003472

  5 C s       :     3.260711  s :     3.260711
      pz      :     0.970379  p :     2.851044
      px      :     0.941484
      py      :     0.939181
      dz2     :     0.004359  d :     0.094352
      dxz     :     0.019096
      dyz     :     0.007412
      dx2y2   :     0.027262
      dxy     :     0.036223
      f0      :     0.001313  f :     0.007667
      f+1     :     0.000561
      f-1     :     0.000727
      f+2     :     0.000823
      f-2     :     0.000613
      f+3     :     0.001348
      f-3     :     0.002283

  6 C s       :     3.256050  s :     3.256050
      pz      :     0.966532  p :     2.832073
      px      :     0.935717
      py      :     0.929824
      dz2     :     0.005934  d :     0.099403
      dxz     :     0.017742
      dyz     :     0.009279
      dx2y2   :     0.023102
      dxy     :     0.043346
      f0      :     0.001280  f :     0.007763
      f+1     :     0.000543
      f-1     :     0.000771
      f+2     :     0.001053
      f-2     :     0.000442
      f+3     :     0.001395
      f-3     :     0.002279

  7 C s       :     3.178081  s :     3.178081
      pz      :     0.968081  p :     2.718747
      px      :     0.825393
      py      :     0.925273
      dz2     :     0.007887  d :     0.137995
      dxz     :     0.020573
      dyz     :     0.023655
      dx2y2   :     0.049156
      dxy     :     0.036723
      f0      :     0.001444  f :     0.009911
      f+1     :     0.000836
      f-1     :     0.000641
      f+2     :     0.000857
      f-2     :     0.001202
      f+3     :     0.001545
      f-3     :     0.003386

  8 C s       :     3.259311  s :     3.259311
      pz      :     0.976451  p :     2.834789
      px      :     0.939345
      py      :     0.918992
      dz2     :     0.005069  d :     0.097204
      dxz     :     0.020583
      dyz     :     0.007704
      dx2y2   :     0.027579
      dxy     :     0.036268
      f0      :     0.001264  f :     0.007636
      f+1     :     0.000566
      f-1     :     0.000719
      f+2     :     0.000839
      f-2     :     0.000648
      f+3     :     0.001338
      f-3     :     0.002262

  9 C s       :     3.224394  s :     3.224394
      pz      :     0.966375  p :     2.835349
      px      :     0.925255
      py      :     0.943719
      dz2     :     0.005451  d :     0.098581
      dxz     :     0.016947
      dyz     :     0.009336
      dx2y2   :     0.023654
      dxy     :     0.043192
      f0      :     0.001297  f :     0.007737
      f+1     :     0.000549
      f-1     :     0.000734
      f+2     :     0.001048
      f-2     :     0.000422
      f+3     :     0.001374
      f-3     :     0.002313

 10 C s       :     2.985551  s :     2.985551
      pz      :     0.914023  p :     2.754872
      px      :     0.881234
      py      :     0.959615
      dz2     :     0.026321  d :     0.125715
      dxz     :     0.033823
      dyz     :     0.019518
      dx2y2   :     0.022669
      dxy     :     0.023384
      f0      :     0.001539  f :     0.008177
      f+1     :     0.001192
      f-1     :     0.001259
      f+2     :     0.001270
      f-2     :     0.000831
      f+3     :     0.001020
      f-3     :     0.001066

 11 C s       :     3.259623  s :     3.259623
      pz      :     0.950233  p :     3.075036
      px      :     1.071381
      py      :     1.053422
      dz2     :     0.016566  d :     0.065277
      dxz     :     0.011948
      dyz     :     0.015078
      dx2y2   :     0.016802
      dxy     :     0.004882
      f0      :     0.000809  f :     0.004667
      f+1     :     0.000880
      f-1     :     0.001025
      f+2     :     0.000448
      f-2     :     0.000505
      f+3     :     0.000830
      f-3     :     0.000169

 12 C s       :     3.111080  s :     3.111080
      pz      :     0.817948  p :     2.377215
      px      :     0.763504
      py      :     0.795763
      dz2     :     0.044184  d :     0.250117
      dxz     :     0.082885
      dyz     :     0.024810
      dx2y2   :     0.039672
      dxy     :     0.058566
      f0      :     0.004977  f :     0.023194
      f+1     :     0.002988
      f-1     :     0.001823
      f+2     :     0.004581
      f-2     :     0.002435
      f+3     :     0.002856
      f-3     :     0.003534

 13 O s       :     3.752683  s :     3.752683
      pz      :     1.542396  p :     4.558696
      px      :     1.319397
      py      :     1.696903
      dz2     :     0.008819  d :     0.028449
      dxz     :     0.004977
      dyz     :     0.005073
      dx2y2   :     0.005731
      dxy     :     0.003849
      f0      :     0.000165  f :     0.001787
      f+1     :     0.000443
      f-1     :     0.000141
      f+2     :     0.000267
      f-2     :     0.000208
      f+3     :     0.000278
      f-3     :     0.000284

 14 O s       :     3.808952  s :     3.808952
      pz      :     1.708846  p :     4.536454
      px      :     1.339851
      py      :     1.487757
      dz2     :     0.002880  d :     0.028317
      dxz     :     0.007914
      dyz     :     0.000445
      dx2y2   :     0.007911
      dxy     :     0.009167
      f0      :     0.000257  f :     0.001874
      f+1     :     0.000271
      f-1     :     0.000063
      f+2     :     0.000298
      f-2     :     0.000061
      f+3     :     0.000421
      f-3     :     0.000503

 15 H s       :     0.858654  s :     0.858654
      pz      :     0.009399  p :     0.019545
      px      :     0.005078
      py      :     0.005068

 16 H s       :     0.871268  s :     0.871268
      pz      :     0.004413  p :     0.019383
      px      :     0.005147
      py      :     0.009823

 17 H s       :     0.850902  s :     0.850902
      pz      :     0.004752  p :     0.020054
      px      :     0.010757
      py      :     0.004545

 18 H s       :     0.902499  s :     0.902499
      pz      :     0.004514  p :     0.020422
      px      :     0.005539
      py      :     0.010370

 19 H s       :     0.868665  s :     0.868665
      pz      :     0.004584  p :     0.019350
      px      :     0.005893
      py      :     0.008873

 20 H s       :     0.858997  s :     0.858997
      pz      :     0.008790  p :     0.019554
      px      :     0.005442
      py      :     0.005322

 21 H s       :     0.863003  s :     0.863003
      pz      :     0.007523  p :     0.019536
      px      :     0.005303
      py      :     0.006710

 22 H s       :     0.869829  s :     0.869829
      pz      :     0.004744  p :     0.019814
      px      :     0.005591
      py      :     0.009478

 23 H s       :     0.875448  s :     0.875448
      pz      :     0.008461  p :     0.020031
      px      :     0.005168
      py      :     0.006402

 24 H s       :     0.855959  s :     0.855959
      pz      :     0.004738  p :     0.020020
      px      :     0.005110
      py      :     0.010172

 25 H s       :     0.856390  s :     0.856390
      pz      :     0.004656  p :     0.019866
      px      :     0.006040
      py      :     0.009169

 26 H s       :     0.851050  s :     0.851050
      pz      :     0.004699  p :     0.019957
      px      :     0.005059
      py      :     0.010199

 27 H s       :     0.859354  s :     0.859354
      pz      :     0.004682  p :     0.019847
      px      :     0.006092
      py      :     0.009072

 28 H s       :     0.868118  s :     0.868118
      pz      :     0.004449  p :     0.020914
      px      :     0.005280
      py      :     0.011184

 29 H s       :     0.844941  s :     0.844941
      pz      :     0.004444  p :     0.019623
      px      :     0.005124
      py      :     0.010055

 30 H s       :     0.845196  s :     0.845196
      pz      :     0.008341  p :     0.019491
      px      :     0.005213
      py      :     0.005937

 31 H s       :     0.848523  s :     0.848523
      pz      :     0.004551  p :     0.019904
      px      :     0.010860
      py      :     0.004492

 32 H s       :     0.585360  s :     0.585360
      pz      :     0.010969  p :     0.044446
      px      :     0.020242
      py      :     0.013235



                     *******************************
                     * LOEWDIN POPULATION ANALYSIS *
                     *******************************

----------------------
LOEWDIN ATOMIC CHARGES
----------------------
   0 C :   -0.283535
   1 C :   -0.297739
   2 C :   -0.286068
   3 C :   -0.189631
   4 C :   -0.142562
   5 C :   -0.107006
   6 C :   -0.108840
   7 C :   -0.147964
   8 C :   -0.116130
   9 C :   -0.112507
  10 C :   -0.207221
  11 C :   -0.259160
  12 C :   -0.458161
  13 O :    0.117313
  14 O :    0.054321
  15 H :    0.120342
  16 H :    0.120348
  17 H :    0.120274
  18 H :    0.149336
  19 H :    0.119550
  20 H :    0.120333
  21 H :    0.118741
  22 H :    0.145856
  23 H :    0.147709
  24 H :    0.152450
  25 H :    0.152484
  26 H :    0.154650
  27 H :    0.151750
  28 H :    0.183396
  29 H :    0.126797
  30 H :    0.128025
  31 H :    0.124166
  32 H :    0.208683

-------------------------------
LOEWDIN REDUCED ORBITAL CHARGES
-------------------------------
  0 C s       :     2.832278  s :     2.832278
      pz      :     1.038644  p :     3.156745
      px      :     1.059902
      py      :     1.058199
      dz2     :     0.084744  d :     0.269008
      dxz     :     0.036800
      dyz     :     0.044820
      dx2y2   :     0.071668
      dxy     :     0.030976
      f0      :     0.003096  f :     0.025505
      f+1     :     0.004581
      f-1     :     0.004896
      f+2     :     0.003224
      f-2     :     0.004431
      f+3     :     0.004000
      f-3     :     0.001277

  1 C s       :     2.741080  s :     2.741080
      pz      :     0.987356  p :     2.977059
      px      :     0.997228
      py      :     0.992476
      dz2     :     0.129724  d :     0.526259
      dxz     :     0.108408
      dyz     :     0.090066
      dx2y2   :     0.105233
      dxy     :     0.092829
      f0      :     0.010163  f :     0.053340
      f+1     :     0.007423
      f-1     :     0.007281
      f+2     :     0.009490
      f-2     :     0.006445
      f+3     :     0.005998
      f-3     :     0.006541

  2 C s       :     2.834425  s :     2.834425
      pz      :     1.063592  p :     3.156237
      px      :     1.027637
      py      :     1.065008
      dz2     :     0.038037  d :     0.269899
      dxz     :     0.069176
      dyz     :     0.038271
      dx2y2   :     0.045153
      dxy     :     0.079262
      f0      :     0.002577  f :     0.025506
      f+1     :     0.003706
      f-1     :     0.002888
      f+2     :     0.004193
      f-2     :     0.002298
      f+3     :     0.004768
      f-3     :     0.005076

  3 C s       :     2.770365  s :     2.770365
      pz      :     1.001042  p :     3.000684
      px      :     0.979633
      py      :     1.020009
      dz2     :     0.076776  d :     0.380897
      dxz     :     0.086505
      dyz     :     0.070072
      dx2y2   :     0.072577
      dxy     :     0.074968
      f0      :     0.006061  f :     0.037685
      f+1     :     0.005808
      f-1     :     0.004968
      f+2     :     0.005907
      f-2     :     0.004276
      f+3     :     0.005516
      f-3     :     0.005149

  4 C s       :     2.717426  s :     2.717426
      pz      :     0.824044  p :     2.849359
      px      :     0.979030
      py      :     1.046284
      dz2     :     0.036040  d :     0.519228
      dxz     :     0.071500
      dyz     :     0.075208
      dx2y2   :     0.176117
      dxy     :     0.160365
      f0      :     0.003953  f :     0.056548
      f+1     :     0.004112
      f-1     :     0.004269
      f+2     :     0.005907
      f-2     :     0.007436
      f+3     :     0.009478
      f-3     :     0.021393

  5 C s       :     2.764361  s :     2.764361
      pz      :     0.888444  p :     2.920676
      px      :     1.036809
      py      :     0.995422
      dz2     :     0.025978  d :     0.380176
      dxz     :     0.063254
      dyz     :     0.023555
      dx2y2   :     0.129418
      dxy     :     0.137971
      f0      :     0.002918  f :     0.041793
      f+1     :     0.004054
      f-1     :     0.003274
      f+2     :     0.005124
      f-2     :     0.003701
      f+3     :     0.008296
      f-3     :     0.014425

  6 C s       :     2.766513  s :     2.766513
      pz      :     0.884677  p :     2.914974
      px      :     1.033731
      py      :     0.996566
      dz2     :     0.026398  d :     0.385546
      dxz     :     0.059479
      dyz     :     0.033124
      dx2y2   :     0.111719
      dxy     :     0.154825
      f0      :     0.002918  f :     0.041807
      f+1     :     0.003804
      f-1     :     0.003528
      f+2     :     0.006841
      f-2     :     0.002408
      f+3     :     0.008106
      f-3     :     0.014203

  7 C s       :     2.715573  s :     2.715573
      pz      :     0.861775  p :     2.865926
      px      :     0.954764
      py      :     1.049386
      dz2     :     0.036905  d :     0.511273
      dxz     :     0.065550
      dyz     :     0.078803
      dx2y2   :     0.175587
      dxy     :     0.154429
      f0      :     0.003716  f :     0.055192
      f+1     :     0.004275
      f-1     :     0.004137
      f+2     :     0.005471
      f-2     :     0.007644
      f+3     :     0.009284
      f-3     :     0.020665

  8 C s       :     2.764994  s :     2.764994
      pz      :     0.888669  p :     2.923393
      px      :     1.041153
      py      :     0.993570
      dz2     :     0.026223  d :     0.385874
      dxz     :     0.068678
      dyz     :     0.025355
      dx2y2   :     0.126888
      dxy     :     0.138730
      f0      :     0.002891  f :     0.041869
      f+1     :     0.004065
      f-1     :     0.003214
      f+2     :     0.005270
      f-2     :     0.004031
      f+3     :     0.008238
      f-3     :     0.014161

  9 C s       :     2.765552  s :     2.765552
      pz      :     0.890208  p :     2.921351
      px      :     1.031448
      py      :     0.999695
      dz2     :     0.026524  d :     0.383632
      dxz     :     0.057016
      dyz     :     0.030954
      dx2y2   :     0.113203
      dxy     :     0.155936
      f0      :     0.002944  f :     0.041971
      f+1     :     0.003843
      f-1     :     0.003495
      f+2     :     0.006705
      f-2     :     0.002250
      f+3     :     0.008215
      f-3     :     0.014519

 10 C s       :     2.732264  s :     2.732264
      pz      :     0.990188  p :     2.944146
      px      :     0.965570
      py      :     0.988388
      dz2     :     0.106414  d :     0.480278
      dxz     :     0.118544
      dyz     :     0.077583
      dx2y2   :     0.094499
      dxy     :     0.083238
      f0      :     0.008640  f :     0.050533
      f+1     :     0.007962
      f-1     :     0.007218
      f+2     :     0.007634
      f-2     :     0.007268
      f+3     :     0.005847
      f-3     :     0.005964

 11 C s       :     2.831286  s :     2.831286
      pz      :     1.008442  p :     3.138392
      px      :     1.065645
      py      :     1.064306
      dz2     :     0.072609  d :     0.264209
      dxz     :     0.047136
      dyz     :     0.061330
      dx2y2   :     0.063084
      dxy     :     0.020052
      f0      :     0.004184  f :     0.025272
      f+1     :     0.005228
      f-1     :     0.004872
      f+2     :     0.002530
      f-2     :     0.004362
      f+3     :     0.003211
      f-3     :     0.000885

 12 C s       :     2.776656  s :     2.776656
      pz      :     0.884337  p :     2.625049
      px      :     0.951782
      py      :     0.788930
      dz2     :     0.172237  d :     0.912026
      dxz     :     0.296874
      dyz     :     0.096559
      dx2y2   :     0.155625
      dxy     :     0.190731
      f0      :     0.030453  f :     0.144431
      f+1     :     0.020364
      f-1     :     0.013379
      f+2     :     0.026565
      f-2     :     0.014449
      f+3     :     0.019218
      f-3     :     0.020003

 13 O s       :     3.332290  s :     3.332290
      pz      :     1.550148  p :     4.477713
      px      :     1.316315
      py      :     1.611250
      dz2     :     0.020218  d :     0.068105
      dxz     :     0.015191
      dyz     :     0.009714
      dx2y2   :     0.014713
      dxy     :     0.008269
      f0      :     0.000623  f :     0.004579
      f+1     :     0.001123
      f-1     :     0.000539
      f+2     :     0.000740
      f-2     :     0.000626
      f+3     :     0.000411
      f-3     :     0.000517

 14 O s       :     3.416922  s :     3.416922
      pz      :     1.576081  p :     4.460353
      px      :     1.481583
      py      :     1.402688
      dz2     :     0.008440  d :     0.062688
      dxz     :     0.016194
      dyz     :     0.000733
      dx2y2   :     0.021773
      dxy     :     0.015549
      f0      :     0.000645  f :     0.005717
      f+1     :     0.001062
      f-1     :     0.000126
      f+2     :     0.000900
      f-2     :     0.000160
      f+3     :     0.001497
      f-3     :     0.001327

 15 H s       :     0.819648  s :     0.819648
      pz      :     0.028332  p :     0.060010
      px      :     0.015622
      py      :     0.016055

 16 H s       :     0.819589  s :     0.819589
      pz      :     0.013026  p :     0.060063
      px      :     0.016058
      py      :     0.030979

 17 H s       :     0.818870  s :     0.818870
      pz      :     0.013160  p :     0.060856
      px      :     0.034574
      py      :     0.013122

 18 H s       :     0.793807  s :     0.793807
      pz      :     0.013008  p :     0.056857
      px      :     0.015460
      py      :     0.028389

 19 H s       :     0.820385  s :     0.820385
      pz      :     0.013534  p :     0.060065
      px      :     0.016528
      py      :     0.030003

 20 H s       :     0.819714  s :     0.819714
      pz      :     0.029154  p :     0.059953
      px      :     0.014828
      py      :     0.015971

 21 H s       :     0.821294  s :     0.821294
[...]
      f-3     :     0.014341

  7 C s       :     2.715154  s :     2.715154
      pz      :     0.860866  p :     2.864170
      px      :     0.951340
      py      :     1.051964
      dz2     :     0.035947  d :     0.513454
      dxz     :     0.063448
      dyz     :     0.079023
      dx2y2   :     0.176984
      dxy     :     0.158053
      f0      :     0.003705  f :     0.055471
      f+1     :     0.004174
      f-1     :     0.004198
      f+2     :     0.005083
      f-2     :     0.007710
      f+3     :     0.009428
      f-3     :     0.021174

  8 C s       :     2.763843  s :     2.763843
      pz      :     0.884405  p :     2.916726
      px      :     1.038229
      py      :     0.994091
      dz2     :     0.026135  d :     0.384036
      dxz     :     0.066343
      dyz     :     0.024335
      dx2y2   :     0.127528
      dxy     :     0.139695
      f0      :     0.002888  f :     0.042017
      f+1     :     0.004094
      f-1     :     0.003293
      f+2     :     0.005069
      f-2     :     0.004080
      f+3     :     0.008388
      f-3     :     0.014204

  9 C s       :     2.766005  s :     2.766005
      pz      :     0.889061  p :     2.920795
      px      :     1.031702
      py      :     1.000033
      dz2     :     0.026568  d :     0.383220
      dxz     :     0.055913
      dyz     :     0.030564
      dx2y2   :     0.112535
      dxy     :     0.157639
      f0      :     0.002858  f :     0.041719
      f+1     :     0.003918
      f-1     :     0.003474
      f+2     :     0.006551
      f-2     :     0.002205
      f+3     :     0.008253
      f-3     :     0.014461

 10 C s       :     2.734863  s :     2.734863
      pz      :     0.988153  p :     2.945012
      px      :     0.967642
      py      :     0.989216
      dz2     :     0.111683  d :     0.480529
      dxz     :     0.116634
      dyz     :     0.085715
      dx2y2   :     0.087142
      dxy     :     0.079354
      f0      :     0.008676  f :     0.049626
      f+1     :     0.007399
      f-1     :     0.007083
      f+2     :     0.007653
      f-2     :     0.006849
      f+3     :     0.006178
      f-3     :     0.005788

 11 C s       :     2.833016  s :     2.833016
      pz      :     1.016569  p :     3.145618
      px      :     1.062499
      py      :     1.066549
      dz2     :     0.068353  d :     0.255943
      dxz     :     0.041560
      dyz     :     0.063157
      dx2y2   :     0.061804
      dxy     :     0.021069
      f0      :     0.003999  f :     0.025017
      f+1     :     0.005254
      f-1     :     0.004722
      f+2     :     0.002579
      f-2     :     0.004387
      f+3     :     0.003321
      f-3     :     0.000755

 12 C s       :     2.778718  s :     2.778718
      pz      :     0.907507  p :     2.629978
      px      :     0.864770
      py      :     0.857700
      dz2     :     0.196446  d :     0.910862
      dxz     :     0.225968
      dyz     :     0.199011
      dx2y2   :     0.157891
      dxy     :     0.131546
      f0      :     0.039539  f :     0.146138
      f+1     :     0.018785
      f-1     :     0.018118
      f+2     :     0.010921
      f-2     :     0.026558
      f+3     :     0.016567
      f-3     :     0.015648

 13 O s       :     3.347675  s :     3.347675
      pz      :     1.519724  p :     4.476336
      px      :     1.438654
      py      :     1.517957
      dz2     :     0.027358  d :     0.068545
      dxz     :     0.013331
      dyz     :     0.010069
      dx2y2   :     0.002868
      dxy     :     0.014919
      f0      :     0.001204  f :     0.004723
      f+1     :     0.001079
      f-1     :     0.000783
      f+2     :     0.000363
      f-2     :     0.000529
      f+3     :     0.000207
      f-3     :     0.000560

 14 O s       :     3.410376  s :     3.410376
      pz      :     1.621265  p :     4.451755
      px      :     1.423733
      py      :     1.406757
      dz2     :     0.008792  d :     0.064187
      dxz     :     0.010413
      dyz     :     0.008179
      dx2y2   :     0.013540
      dxy     :     0.023263
      f0      :     0.000715  f :     0.005954
      f+1     :     0.000697
      f-1     :     0.000569
      f+2     :     0.000080
      f-2     :     0.001146
      f+3     :     0.001303
      f-3     :     0.001445

 15 H s       :     0.819972  s :     0.819972
      pz      :     0.029284  p :     0.059899
      px      :     0.015523
      py      :     0.015092

 16 H s       :     0.819686  s :     0.819686
      pz      :     0.013716  p :     0.059702
      px      :     0.017270
      py      :     0.028716

 17 H s       :     0.819179  s :     0.819179
      pz      :     0.013072  p :     0.060695
      px      :     0.034145
      py      :     0.013478

 18 H s       :     0.795304  s :     0.795304
      pz      :     0.013552  p :     0.056324
      px      :     0.016461
      py      :     0.026311

 19 H s       :     0.819930  s :     0.819930
      pz      :     0.014289  p :     0.059754
      px      :     0.017540
      py      :     0.027925

 20 H s       :     0.820112  s :     0.820112
      pz      :     0.029800  p :     0.059923
      px      :     0.015108
      py      :     0.015015

 21 H s       :     0.820827  s :     0.820827
      pz      :     0.023138  p :     0.059845
      px      :     0.013376
      py      :     0.023330

 22 H s       :     0.796681  s :     0.796681
      pz      :     0.013722  p :     0.057522
      px      :     0.015011
      py      :     0.028788

 23 H s       :     0.793557  s :     0.793557
      pz      :     0.021895  p :     0.057891
      px      :     0.013753
      py      :     0.022244

 24 H s       :     0.789144  s :     0.789144
      pz      :     0.013369  p :     0.058607
      px      :     0.014847
      py      :     0.030392

 25 H s       :     0.788317  s :     0.788317
      pz      :     0.013279  p :     0.058710
      px      :     0.018212
      py      :     0.027220

 26 H s       :     0.786326  s :     0.786326
      pz      :     0.013359  p :     0.058888
      px      :     0.014831
      py      :     0.030698

 27 H s       :     0.790060  s :     0.790060
      pz      :     0.013336  p :     0.058585
      px      :     0.018158
      py      :     0.027091

 28 H s       :     0.758816  s :     0.758816
      pz      :     0.012518  p :     0.057220
      px      :     0.014464
      py      :     0.030238

 29 H s       :     0.813244  s :     0.813244
      pz      :     0.012738  p :     0.060601
      px      :     0.015546
      py      :     0.032317

 30 H s       :     0.812146  s :     0.812146
      pz      :     0.024150  p :     0.060409
      px      :     0.015788
      py      :     0.020471

 31 H s       :     0.813646  s :     0.813646
      pz      :     0.012369  p :     0.060947
      px      :     0.035524
      py      :     0.013053

 32 H s       :     0.638196  s :     0.638196
      pz      :     0.028592  p :     0.147517
      px      :     0.062948
      py      :     0.055978



                      *****************************
                      * MAYER POPULATION ANALYSIS *
                      *****************************

  NA   - Mulliken gross atomic population
  ZA   - Total nuclear charge
  QA   - Mulliken gross atomic charge
  VA   - Mayer's total valence
  BVA  - Mayer's bonded valence
  FA   - Mayer's free valence

  ATOM       NA         ZA         QA         VA         BVA        FA
  0 C      6.3878     6.0000    -0.3878     3.9340     3.9340    -0.0000
  1 C      6.0164     6.0000    -0.0164     3.9639     3.9639    -0.0000
  2 C      6.3622     6.0000    -0.3622     3.9035     3.9035    -0.0000
  3 C      6.1733     6.0000    -0.1733     3.8525     3.8525     0.0000
  4 C      5.8344     6.0000     0.1656     3.6878     3.6878    -0.0000
  5 C      6.2230     6.0000    -0.2230     3.9065     3.9065    -0.0000
  6 C      6.1561     6.0000    -0.1561     3.8973     3.8973     0.0000
  7 C      6.0463     6.0000    -0.0463     3.7982     3.7982    -0.0000
  8 C      6.1737     6.0000    -0.1737     3.9069     3.9069    -0.0000
  9 C      6.1994     6.0000    -0.1994     3.9137     3.9137     0.0000
 10 C      5.9298     6.0000     0.0702     3.6553     3.6553     0.0000
 11 C      6.3965     6.0000    -0.3965     3.9529     3.9529     0.0000
 12 C      5.7602     6.0000     0.2398     4.3997     4.3997     0.0000
 13 O      8.3468     8.0000    -0.3468     2.1165     2.1165    -0.0000
 14 O      8.3594     8.0000    -0.3594     2.1481     2.1481    -0.0000
 15 H      0.8778     1.0000     0.1222     0.9696     0.9696     0.0000
 16 H      0.8913     1.0000     0.1087     0.9792     0.9792    -0.0000
 17 H      0.8721     1.0000     0.1279     0.9696     0.9696    -0.0000
 18 H      0.9279     1.0000     0.0721     0.9667     0.9667     0.0000
 19 H      0.8888     1.0000     0.1112     0.9787     0.9787    -0.0000
 20 H      0.8779     1.0000     0.1221     0.9703     0.9703     0.0000
 21 H      0.8799     1.0000     0.1201     0.9729     0.9729     0.0000
 22 H      0.8901     1.0000     0.1099     0.9781     0.9781    -0.0000
 23 H      0.8934     1.0000     0.1066     0.9697     0.9697    -0.0000
 24 H      0.8793     1.0000     0.1207     0.9718     0.9718    -0.0000
 25 H      0.8790     1.0000     0.1210     0.9742     0.9742    -0.0000
 26 H      0.8744     1.0000     0.1256     0.9734     0.9734     0.0000
 27 H      0.8841     1.0000     0.1159     0.9748     0.9748    -0.0000
 28 H      0.8816     1.0000     0.1184     0.9757     0.9757    -0.0000
 29 H      0.8678     1.0000     0.1322     0.9762     0.9762     0.0000
 30 H      0.8674     1.0000     0.1326     0.9704     0.9704     0.0000
 31 H      0.8662     1.0000     0.1338     0.9760     0.9760     0.0000
 32 H      0.6355     1.0000     0.3645     0.8869     0.8869    -0.0000

  Mayer bond orders larger than 0.100000
B(  0-C ,  1-C ) :   1.0077 B(  0-C , 15-H ) :   0.9662 B(  0-C , 16-H ) :   0.9633 
B(  0-C , 17-H ) :   0.9649 B(  1-C ,  2-C ) :   0.9848 B(  1-C ,  3-C ) :   1.0029 
B(  1-C , 18-H ) :   0.9368 B(  2-C , 19-H ) :   0.9646 B(  2-C , 20-H ) :   0.9673 
B(  2-C , 21-H ) :   0.9664 B(  3-C ,  4-C ) :   0.9529 B(  3-C , 22-H ) :   0.9482 
B(  3-C , 23-H ) :   0.9314 B(  4-C ,  5-C ) :   1.3126 B(  4-C ,  9-C ) :   1.3243 
B(  5-C ,  6-C ) :   1.3947 B(  5-C , 24-H ) :   0.9999 B(  6-C ,  7-C ) :   1.3376 
B(  6-C , 25-H ) :   0.9910 B(  7-C ,  8-C ) :   1.3405 B(  7-C , 10-C ) :   0.9238 
B(  8-C ,  9-C ) :   1.4003 B(  8-C , 26-H ) :   0.9941 B(  9-C , 27-H ) :   0.9951 
B( 10-C , 11-C ) :   0.9930 B( 10-C , 12-C ) :   0.9742 B( 10-C , 28-H ) :   0.8826 
B( 11-C , 29-H ) :   0.9648 B( 11-C , 30-H ) :   0.9624 B( 11-C , 31-H ) :   0.9571 
B( 12-C , 13-O ) :   1.2298 B( 12-C , 14-O ) :   2.0604 B( 13-O , 32-H ) :   0.8339 


-------
TIMINGS
-------

Total SCF time: 0 days 0 hours 0 min 43 sec 

Total time                  ....      43.452 sec
Sum of individual times     ....      43.339 sec  ( 99.7%)

SCF preparation             ....       0.295 sec  (  0.7%)
Fock matrix formation       ....      42.500 sec  ( 97.8%)
  Startup                   ....       0.023 sec  (  0.1% of F)
  Split-RI-J                ....       7.662 sec  ( 18.0% of F)
  XC integration            ....      22.992 sec  ( 54.1% of F)
    Basis function eval.    ....       3.215 sec  ( 14.0% of XC)
    Density eval.           ....       9.577 sec  ( 41.7% of XC)
    XC-Functional eval.     ....       0.409 sec  (  1.8% of XC)
    XC-Potential eval.      ....       9.403 sec  ( 40.9% of XC)
  CPCM terms                ....      11.750 sec  ( 27.6% of F)
Diagonalization             ....       0.000 sec  (  0.0%)
Density matrix formation    ....       0.044 sec  (  0.1%)
Total Energy calculation    ....       0.031 sec  (  0.1%)
Population analysis         ....       0.071 sec  (  0.2%)
Orbital Transformation      ....       0.055 sec  (  0.1%)
Orbital Orthonormalization  ....       0.000 sec  (  0.0%)
DIIS solution               ....       0.060 sec  (  0.1%)
SOSCF solution              ....       0.283 sec  (  0.7%)
Finished LeanSCF after  43.5 sec

Maximum memory used throughout the entire LEANSCF-calculation: 116.9 MB

-------------------------   --------------------
FINAL SINGLE POINT ENERGY      -657.064722579984
-------------------------   --------------------

                                *** OPTIMIZATION RUN DONE ***


------------------------------------------------------------------------------
                              ORCA PROPERTY CALCULATIONS
------------------------------------------------------------------------------

GBWName                                 ... Ibuprofen\Ibuprofen_TPSS_def2-TZVP\Ibuprofen_TPSS_def2-TZVP.orcainp.gbw
Number of atoms                         ...     33
Number of basis functions               ...    573
Max core memory                         ...   1024 MB

Electric properties:
Dipole moment                           ... YES
Quadrupole moment                       ...  NO
Static polarizability (Dipole/Dipole)   ...  NO
Static polarizability (Dipole/Quad.)    ...  NO
Static polarizability (Quad./Quad.)     ...  NO
Static polarizability (Velocity)        ...  NO

Atomic electric properties:
Dipole moment                           ...  NO
Quadrupole moment                       ...  NO
Static polarizability                   ...  NO

Choice of electric origin               ... Center of mass
Position of electric origin             ...    11.684133    -0.574851    -1.482671

General magnetic properties:
Magnetizability                         ...  NO

EPR properties:
g-Tensor (aka g-matrix)                 ...  NO
Zero-Field splitting spin-orbit         ...  NO
Zero-field splitting spin-spin          ...  NO
Hyperfine couplings                     ...  NO (   0 nuclei)
Quadrupole couplings                    ...  NO (   0 nuclei)
Contact density                         ...  NO (   0 nuclei)

NMR properties:
Chemical shifts                         ...  NO (   0 nuclei)
Spin-rotation constants                 ...  NO (   0 nuclei)
Spin-spin couplings                     ...  NO (   0 nuclei,    0 pairs)

Choice of magnetic origin               ... GIAO
Position of magnetic origin             ...     0.000000     0.000000     0.000000

Properties with geometric perturbations:
SCF Hessian                             ...  NO
IR spectrum                             ...  NO
VCD spectrum                            ...  NO
X-ray spectroscopy properties:
SCF XES/XAS/RIXS spectra                ...  NO


-------------
DIPOLE MOMENT
-------------

Method             : SCF
Type of density    : Electron Density
Multiplicity       :   1
Irrep              :   0
Energy             :  -657.0647225799839362 Eh
Relativity type    : 
Basis              : AO
                                X                 Y                 Z
Electronic contribution:     19.173208193       3.044491203      -0.613816059
Nuclear contribution   :    -21.073934870      -4.609485246       0.072892054
                        -----------------------------------------
Total Dipole Moment    :     -1.900726677      -1.564994044      -0.540924004
                        -----------------------------------------
Magnitude (a.u.)       :      2.520826657
Magnitude (Debye)      :      6.407432155



--------------------
Rotational spectrum 
--------------------
 
Rotational constants in cm-1:             0.048136             0.008473             0.007977 
Rotational constants in MHz :          1443.075885           254.021331           239.132988 

Dipole components along the rotational axes: 
x,y,z [a.u.] :     2.085758    -1.114308     0.873211 
x,y,z [Debye]:     5.301577    -2.832345     2.219526 

 

Dipole moment calculation done in   0.0 sec 

Maximum memory used throughout the entire PROP-calculation: 62.0 MB

--------------------------------
SUGGESTED CITATIONS FOR THIS RUN
--------------------------------

Below you find a list of papers that are relevant to this ORCA run
We neither can nor want to force you to cite these papers, but we appreciate if you do
You receive ORCA, which is the product of decades of hard work by many enthusiastic individuals, for free
The only thing we kindly ask in return is that you cite our papers,
We deeply appreciate it, if you show your appreciation for ORCA by not just citing the generic ORCA reference.

Please note that relegating all ORCA citations to the supporting information does *not* help us.
SI sections are not indexed - citations you put there will not count into any citation statistics
But we need these citations in order to attract the funding resources that allow us to do what we are doing

Therefore, if you are a happy ORCA user, please consider citing a few of the papers listed below in the main body of your paper

In addition to the list printed below, the program has created the file Ibuprofen\Ibuprofen_TPSS_def2-TZVP\Ibuprofen_TPSS_def2-TZVP.orcainp.bibtex that contains the list in bibtex format
You can import this file easily into all common literature databanks and citation aid programs


List of essential papers. We consider these as the minimum necessary citations

  1. Neese,F.
     Software update: the ORCA program system, version 5.0
     WIRES Comput. Molec. Sci., 2022 12(1)e1606
     doi.org/10.1002/wcms.1606

List of papers to cite with high priority. The work reported in these papers was absolutely
necessary for this run to complete.
Our perspective: the developers of density functionals and basis sets usually get cited in chemistry papers
Good! But without the algorithms to do something with them, the functionals or basis sets would not do anything.
Hence, in our opinion, the algorithm design and method developments papers are equally worthy of getting cited

  1. Neese,F.
     An improvement of the resolution of the identity approximation for the formation of the Coulomb matrix
     J. Comp. Chem., 2003 24(14)1740-1747
     doi.org/10.1002/jcc.10318
  2. Garcia-Rates,M.; Neese,F.
     Effect of the Solute Cavity on the Solvation Energy and its Derivatives within the Framework of the Gaussian Charge Scheme
     J. Comput. Chem., 2020 41 922-939
     doi.org/10.1002/jcc.26139
  3. Neese,F.
     The SHARK Integral Generation and Digestion System
     J. Comp. Chem., 2022  1-16
     doi.org/10.1002/jcc.26942

List of suggested additional citations. These are papers that are important in the 'surrounding' of 
of this run, or papers that preceded the highly important papers. If you like your results we are grateful for a citation.

  1. Neese,F.
     The ORCA program system
     WIRES Comput. Molec. Sci., 2012 2(1)73-78
     doi.org/10.1002/wcms.81
  2. Neese,F.
     Software update: the ORCA program system, version 4.0
     WIRES Comput. Molec. Sci., 2018 8(1)1-6
     doi.org/10.1002/wcms.1327
  3. Neese,F.; Wennmohs,F.; Becker,U.; Riplinger,C.
     The ORCA quantum chemistry program package
     J. Chem. Phys., 2020 152 Art. No. L224108
     doi.org/10.1063/5.0004608

List of optional additional citations

  1. Neese,F.
     Approximate second-order SCF convergence for spin unrestricted wavefunctions
     Chem. Phys. Lett., 2000 325(1-3)93-98
     doi.org/10.1016/s0009-2614(00)00662-x

Timings for individual modules:

Sum of individual times          ...     1501.823 sec (=  25.030 min)
Startup calculation              ...       23.459 sec (=   0.391 min)   1.6 %
SCF iterations                   ...     1088.626 sec (=  18.144 min)  72.5 %
Property calculations            ...        0.126 sec (=   0.002 min)   0.0 %
SCF Gradient evaluation          ...      389.422 sec (=   6.490 min)  25.9 %
Geometry relaxation              ...        0.190 sec (=   0.003 min)   0.0 %
                             ****ORCA TERMINATED NORMALLY****
TOTAL RUN TIME: 0 days 0 hours 25 minutes 3 seconds 714 msec
