
                                 *****************
                                 * O   R   C   A *
                                 *****************

                                            #,                                       
                                            ###                                      
                                            ####                                     
                                            #####                                    
                                            ######                                   
                                           ########,                                 
                                     ,,################,,,,,                         
                               ,,#################################,,                 
                          ,,##########################################,,             
                       ,#########################################, ''#####,          
                    ,#############################################,,   '####,        
                  ,##################################################,,,,####,       
                ,###########''''           ''''###############################       
              ,#####''   ,,,,##########,,,,          '''####'''          '####       
            ,##' ,,,,###########################,,,                        '##       
           ' ,,###''''                  '''############,,,                           
         ,,##''                                '''############,,,,        ,,,,,,###''
      ,#''                                            '''#######################'''  
     '                                                          ''''####''''         
             ,#######,   #######,   ,#######,      ##                                
            ,#'     '#,  ##    ##  ,#'     '#,    #''#        ,####,   ,####,        
            ##       ##  ##   ,#'  ##            #'  '#       #'       #'  '#        
            ##       ##  #######   ##           ,######,      #####,   #    #        
            '#,     ,#'  ##    ##  '#,     ,#' ,#      #,     #,   #   #,  ,#        
             '#######'   ##     ##  '#######'  #'      '#     '####' # '####'        



                #########################################################
                #                        -***-                          #
                #          Department of theory and spectroscopy        #
                #                                                       #
                #                      Frank Neese                      #
                #                                                       #
                #     Directorship, Architecture, Infrastructure        #
                #                    SHARK, DRIVERS                     #
                #        Core code/Algorithms in most modules           #
                #                                                       #
                #        Max Planck Institute fuer Kohlenforschung      #
                #                Kaiser Wilhelm Platz 1                 #
                #                 D-45470 Muelheim/Ruhr                 #
                #                      Germany                          #
                #                                                       #
                #                  All rights reserved                  #
                #                        -***-                          #
                #########################################################


                         Program Version 6.0.0  -   RELEASE   -


 With contributions from (in alphabetic order):
   Daniel Aravena         : Magnetic Suceptibility
   Michael Atanasov       : Ab Initio Ligand Field Theory (pilot matlab implementation)
   Alexander A. Auer      : GIAO ZORA, VPT2 properties, NMR spectrum
   Ute Becker             : All parallelization in ORCA, NUMFREQ, NUMCALC
   Giovanni Bistoni       : ED, misc. LED, open-shell LED, HFLD
   Martin Brehm           : Molecular dynamics
   Dmytro Bykov           : pre 5.0 version of the SCF Hessian
   Marcos Casanova-Páez   : Triplet and SCS-CIS(D). UHF-(DLPNO)-IP/EA/STEOM-CCSD. UHF-CVS-IP/STEOM-CCSD
   Vijay G. Chilkuri      : MRCI spin determinant printing, contributions to CSF-ICE
   Pauline Colinet        : FMM embedding
   Dipayan Datta          : RHF DLPNO-CCSD density
   Achintya Kumar Dutta   : EOM-CC, STEOM-CC
   Nicolas Foglia         : Exact transition moments, OPA infrastructure, MCD improvements
   Dmitry Ganyushin       : Spin-Orbit,Spin-Spin,Magnetic field MRCI
   Miquel Garcia          : C-PCM and meta-GGA Hessian, CCSD/C-PCM, Gaussian charge scheme
   Tiago L. C. Gouveia    : GS-ROHF, GS-ROCIS
   Yang Guo               : DLPNO-NEVPT2, F12-NEVPT2, CIM, IAO-localization
   Andreas Hansen         : Spin unrestricted coupled pair/coupled cluster methods
   Ingolf Harden          : AUTO-CI MPn and infrastructure 
   Benjamin Helmich-Paris : MC-RPA, TRAH-(SCF,CASSCF), AVAS, COSX integrals, SCF dyn. polar.
   Lee Huntington         : MR-EOM, pCC
   Robert Izsak           : Overlap fitted RIJCOSX, COSX-SCS-MP3, EOM
   Riya Kayal             : Wick's Theorem for AUTO-CI, AUTO-CI UHF-CCSDT
   Emily Kempfer          : AUTO-CI, RHF CISDT and CCSDT
   Christian Kollmar      : KDIIS, OOCD, Brueckner-CCSD(T), CCSD density, CASPT2, CASPT2-K, improved NEVPT2
   Axel Koslowski         : Symmetry handling
   Simone Kossmann        : Meta GGA functionals, TD-DFT gradient, OOMP2, (MP2 Hessian; deprecated post 5.0)
   Lucas Lang             : DCDCAS
   Marvin Lechner         : AUTO-CI (C++ implementation), FIC-MRCC
   Spencer Leger          : CASSCF response
   Dagmar Lenk            : GEPOL surface, SMD, ORCA-2-JSON
   Dimitrios Liakos       : Extrapolation schemes; Compound Job, initial MDCI parallelization
   Dimitrios Manganas     : Further ROCIS development; embedding schemes. LFT, Crystal Embedding
   Dimitrios Pantazis     : SARC Basis sets
   Anastasios Papadopoulos: AUTO-CI, single reference methods and gradients
   Taras Petrenko         : pre 6.0 DFT Hessian and TD-DFT gradient, (ASA, deprecated), ECA, 1-Electron XAS/XES, NRVS
   Peter Pinski           : DLPNO-MP2, DLPNO-MP2 Gradient
   Christoph Reimann      : Effective Core Potentials
   Marius Retegan         : Local ZFS, SOC
   Christoph Riplinger    : Optimizer, TS searches, QM/MM, DLPNO-CCSD(T), (RO)-DLPNO pert. Triples
   Michael Roemelt        : Original ROCIS implementation
   Masaaki Saitow         : Open-shell DLPNO-CCSD energy and density
   Barbara Sandhoefer     : DKH picture change effects
   Kantharuban Sivalingam : CASSCF convergence/infrastructure, NEVPT2 and variants, FIC-MRCI
   Bernardo de Souza      : ESD, SOC TD-DFT
   Georgi Stoychev        : AutoAux, RI-MP2 NMR, DLPNO-MP2 response, X2C
   Van Anh Tran           : RI-MP2 g-tensors
   Willem Van den Heuvel  : Paramagnetic NMR
   Zikuan Wang            : NOTCH, Electric field optimization 
   Frank Wennmohs         : Technical directorship and infrastructure
   Hang Xu                : AUTO-CI-Response properties 


 We gratefully acknowledge several colleagues who have allowed us to
 interface, adapt or use parts of their codes:
   Stefan Grimme, W. Hujo, H. Kruse, P. Pracht,  : VdW corrections, initial TS optimization,
                  C. Bannwarth, S. Ehlert,         DFT functionals, gCP, sTDA/sTD-DF
                  L. Wittmann, M. Mueller
   Ed Valeev, F. Pavosevic, A. Kumar             : LibInt (2-el integral package), F12 methods
   Garnet Chan, S. Sharma, J. Yang, R. Olivares  : DMRG
   Ulf Ekstrom                                   : XCFun DFT Library
   Mihaly Kallay                                 : mrcc  (arbitrary order and MRCC methods)
   Frank Weinhold                                : gennbo (NPA and NBO analysis)
   Simon Mueller                                 : openCOSMO-RS
   Christopher J. Cramer and Donald G. Truhlar   : smd solvation model
   Lars Goerigk                                  : TD-DFT with DH, B97 family of functionals
   V. Asgeirsson, H. Jonsson                     : NEB implementation
   FAccTs GmbH                                   : IRC, NEB, NEB-TS, DLPNO-Multilevel, CI-OPT
                                                   MM, QMMM, 2- and 3-layer-ONIOM, Crystal-QMMM,
                                                   LR-CPCM, SF, NACMEs, symmetry and pop. for TD-DFT,
                                                   nearIR, NL-DFT gradient (VV10), updates on ESD,
                                                   ML-optimized integration grids, MBIS, APM,
                                                   GOAT, DOCKER, SOLVATOR, interface openCOSMO-RS
   S Lehtola, MJT Oliveira, MAL Marques          : LibXC Library
   Liviu Ungur et al                             : ANISO software


 Your calculation uses the libint2 library for the computation of 2-el integrals
 For citations please refer to: http://libint.valeyev.net

 Your ORCA version has been built with support for libXC version: 6.2.2
 For citations please refer to: https://libxc.gitlab.io

 This ORCA versions uses:
   CBLAS   interface :  Fast vector & matrix operations
   LAPACKE interface :  Fast linear algebra routines
   Shared memory     :  Shared parallel matrices


Warning: RI is on but no J-basis has been assigned. Assigning Def2/J (nothing to worry about!)
================================================================================

----- Orbital basis set information -----
Your calculation utilizes the basis: STO-3G
   H-Ne       : W. J. Hehre, R. F. Stewart and J. A. Pople, J. Chem. Phys. 2657 (1969).
   Na-Ar      : W. J. Hehre, R. Ditchfield, R. F. Stewart and J. A. Pople, J. Chem. Phys. 2769 (1970).
   K,Ca,Ga-Kr : W. J. Pietro, B. A. Levy, W. J. Hehre and R. F. Stewart, J. Am. Chem. Soc. 19, 2225 (1980).
   Sc-Zn,Y-Cd : W. J. Pietro and W. J. Hehre, J. Comp. Chem. 4, 241 (1983).

----- AuxJ basis set information -----
Your calculation utilizes the auxiliary basis: def2/J
   F. Weigend, Phys. Chem. Chem. Phys. 8, 1057 (2006).

================================================================================
                                        WARNINGS
                       Please study these warnings very carefully!
================================================================================

WARNING: Old DensityContainer found on disk!
         Will remove this file - 
         If you want to keep old densities, please start your calculation with a different basename. 

INFO   : Checking CIS options ...

WARNING: CIS/ROCIS methods need fully converged wavefunctions
  ===> : Setting SCFConvForced true
         You can overwrite this default with %scf ConvForced false 


================================================================================
                                       INPUT FILE
================================================================================
NAME = Ibuprofen\Ibuprofen_B3LYP_STO-3G\Ibuprofen_B3LYP_STO-3G.orcainp.xyz
|  1> # ORCA xyz input file 
|  2> # 
|  3> !B3LYP STO-3G CPCM(WATER) LARGEPRINT 
|  4> %tddft
|  5>     NRoots 30
|  6>     MaxDim 5
|  7> end
|  8> * xyz 0 1
|  9>   C           2.76173437144993      0.92481352105540     -0.99484176398702
| 10>   C           2.42499041754253      0.07657940733035      0.27081123738955
| 11>   C           0.89229254054445      0.10933421071495      0.56744827788407
| 12>   C           2.91238522818840     -1.41354604615963      0.11619403921166
| 13>   C           4.44403481255006     -1.54041959841326     -0.02231206108608
| 14>   C           5.28756782999480     -1.35244186176928      1.09914036257754
| 15>   C           6.68587993885873     -1.45547758062419      0.97753089046804
| 16>   C           7.28627736323250     -1.75186646743228     -0.27042114986153
| 17>   C           6.44266587693938     -1.94192255410045     -1.39364597315601
| 18>   C           5.04552773050446     -1.83642696473301     -1.26986042348497
| 19>   C           8.82435166363478     -1.87463065265379     -0.39353490804210
| 20>   C           9.28689901454817     -3.28892138227926     -0.86871145623079
| 21>   C           9.43554004200491     -0.76232192492028     -1.36672263608680
| 22>   O           8.76717067544167      0.49066902430743     -1.36114325060157
| 23>   O          10.45141260095998     -0.91694658937411     -2.07990084842173
| 24>   H           2.44251010285496      1.96874854176834     -0.85131262460849
| 25>   H           2.24356297443157      0.52151531375035     -1.87881245638645
| 26>   H           3.84453098026933      0.91522000351320     -1.19205820470949
| 27>   H           2.95517051335356      0.51793627169092      1.13667583282311
| 28>   H           0.32749090048185     -0.33137369738818     -0.26885145596039
| 29>   H           0.55094770261289      1.14682555863044      0.70788232584973
| 30>   H           0.66205179390413     -0.46023590958367      1.48125255668209
| 31>   H           2.42686931726925     -1.86131212977724     -0.76804668956059
| 32>   H           2.58226275354647     -1.97885869448681      1.00659084895219
| 33>   H           4.84368624730593     -1.12739562516219      2.07902203703257
| 34>   H           7.32263839777028     -1.30845752044674      1.86148388727781
| 35>   H           6.88499515161556     -2.17178867593029     -2.37319949921406
| 36>   H           4.40970599764734     -1.99002004756290     -2.15301042236104
| 37>   H           9.26174273378253     -1.68034567212894      0.60628284246486
| 38>   H           8.81658657089454     -3.55069476572675     -1.82855269424708
| 39>   H           9.01392949463091     -4.05001089329200     -0.12159345205066
| 40>   H          10.38008102956345     -3.29377266868807     -1.00173657975360
| 41>   H           7.96309723167061      0.33346606987198     -0.74321658880274
| 42> *
| 43> 
| 44>                          ****END OF INPUT****
================================================================================

                       ****************************
                       * Single Point Calculation *
                       ****************************

---------------------------------
CARTESIAN COORDINATES (ANGSTROEM)
---------------------------------
  C      2.761734    0.924814   -0.994842
  C      2.424990    0.076579    0.270811
  C      0.892293    0.109334    0.567448
  C      2.912385   -1.413546    0.116194
  C      4.444035   -1.540420   -0.022312
  C      5.287568   -1.352442    1.099140
  C      6.685880   -1.455478    0.977531
  C      7.286277   -1.751866   -0.270421
  C      6.442666   -1.941923   -1.393646
  C      5.045528   -1.836427   -1.269860
  C      8.824352   -1.874631   -0.393535
  C      9.286899   -3.288921   -0.868711
  C      9.435540   -0.762322   -1.366723
  O      8.767171    0.490669   -1.361143
  O     10.451413   -0.916947   -2.079901
  H      2.442510    1.968749   -0.851313
  H      2.243563    0.521515   -1.878812
  H      3.844531    0.915220   -1.192058
  H      2.955171    0.517936    1.136676
  H      0.327491   -0.331374   -0.268851
  H      0.550948    1.146826    0.707882
  H      0.662052   -0.460236    1.481253
  H      2.426869   -1.861312   -0.768047
  H      2.582263   -1.978859    1.006591
  H      4.843686   -1.127396    2.079022
  H      7.322638   -1.308458    1.861484
  H      6.884995   -2.171789   -2.373199
  H      4.409706   -1.990020   -2.153010
  H      9.261743   -1.680346    0.606283
  H      8.816587   -3.550695   -1.828553
  H      9.013929   -4.050011   -0.121593
  H     10.380081   -3.293773   -1.001737
  H      7.963097    0.333466   -0.743217

----------------------------
CARTESIAN COORDINATES (A.U.)
----------------------------
  NO LB      ZA    FRAG     MASS         X           Y           Z
   0 C     6.0000    0    12.011    5.218922    1.747644   -1.879978
   1 C     6.0000    0    12.011    4.582568    0.144714    0.511759
   2 C     6.0000    0    12.011    1.686189    0.206612    1.072322
   3 C     6.0000    0    12.011    5.503610   -2.671215    0.219575
   4 C     6.0000    0    12.011    8.398009   -2.910971   -0.042164
   5 C     6.0000    0    12.011    9.992055   -2.555745    2.077074
   6 C     6.0000    0    12.011   12.634482   -2.750454    1.847266
   7 C     6.0000    0    12.011   13.769069   -3.310548   -0.511022
   8 C     6.0000    0    12.011   12.174874   -3.669702   -2.633609
   9 C     6.0000    0    12.011    9.534666   -3.470344   -2.399688
  10 C     6.0000    0    12.011   16.675608   -3.542539   -0.743673
  11 C     6.0000    0    12.011   17.549696   -6.215161   -1.641627
  12 C     6.0000    0    12.011   17.830587   -1.440580   -2.582731
  13 O     8.0000    0    15.999   16.567552    0.927230   -2.572188
  14 O     8.0000    0    15.999   19.750308   -1.732778   -3.930443
  15 H     1.0000    0     1.008    4.615675    3.720396   -1.608748
  16 H     1.0000    0     1.008    4.239720    0.985521   -3.550441
  17 H     1.0000    0     1.008    7.265111    1.729515   -2.252664
  18 H     1.0000    0     1.008    5.584463    0.978758    2.148006
  19 H     1.0000    0     1.008    0.618868   -0.626206   -0.508056
  20 H     1.0000    0     1.008    1.041140    2.167186    1.337704
  21 H     1.0000    0     1.008    1.251097   -0.869720    2.799162
  22 H     1.0000    0     1.008    4.586118   -3.517370   -1.451398
  23 H     1.0000    0     1.008    4.879769   -3.739501    1.902181
  24 H     1.0000    0     1.008    9.153240   -2.130469    3.928782
  25 H     1.0000    0     1.008   13.837781   -2.472626    3.517695
  26 H     1.0000    0     1.008   13.010755   -4.104086   -4.484697
  27 H     1.0000    0     1.008    8.333137   -3.760593   -4.068600
  28 H     1.0000    0     1.008   17.502157   -3.175393    1.145709
  29 H     1.0000    0     1.008   16.660934   -6.709841   -3.455464
  30 H     1.0000    0     1.008   17.033858   -7.653411   -0.229778
  31 H     1.0000    0     1.008   19.615510   -6.224328   -1.893008
  32 H     1.0000    0     1.008   15.048073    0.630160   -1.404476

--------------------------------
INTERNAL COORDINATES (ANGSTROEM)
--------------------------------
 C      0   0   0     0.000000000000     0.00000000     0.00000000
 C      1   0   0     1.560376596234     0.00000000     0.00000000
 C      2   1   0     1.561483010824   110.76387913     0.00000000
 C      2   1   3     1.575415515525   111.58037847   122.92031211
 C      4   2   1     1.543123872979   113.18189986    63.07369474
 C      5   4   2     1.415817473947   120.62057402    73.89049074
 C      6   5   4     1.407367037010   120.91693778   180.54411212
 C      7   6   5     1.416230113499   120.84228827   359.91614633
 C      8   7   6     1.417545646373   118.29330341     0.00000000
 C      9   8   7     1.406572849840   120.75317739     0.09073451
 C      8   7   6     1.547869696126   120.52690637   180.49023111
 C     11   8   7     1.562037474483   112.97002698   119.02946172
 C     11   8   7     1.599336204075   111.89898022   242.97116427
 O     13  11   8     1.420117973462   115.55554088    33.39699236
 O     13  11   8     1.250811338870   124.84400421   211.52684949
 H      1   2   3     1.101047262828   110.31045915    58.95061675
 H      1   2   3     1.101160853701   110.51717748   299.10461293
 H      1   2   3     1.100652014099   110.66528048   178.99592907
 H      2   1   3     1.107071954905   108.31988687   241.42577467
 H      3   2   1     1.101190990569   110.53483278    61.92368201
 H      3   2   1     1.101193133474   110.38050512   302.06198021
 H      3   2   1     1.101117243213   110.61258519   182.01679822
 H      4   2   1     1.103676506869   109.04277447   301.12560878
 H      4   2   1     1.105154160024   108.20058818   184.06890791
 H      6   5   4     1.099019910645   119.52322170     0.82037628
 H      7   6   5     1.099294834728   119.75168585   180.15893560
 H      9   8   7     1.099099054505   119.65158714   179.93119242
 H     10   9   8     1.099005928820   119.56825159   180.15221987
 H     11   8   7     1.108464314325   107.84553533   359.20867465
 H     12  11   8     1.100460949391   110.74156617    56.54758360
 H     12  11   8     1.100888238990   110.24768231   296.14158884
 H     12  11   8     1.101256616970   109.55315374   176.22812071
 H     14  13  11     1.026196974865   103.64912538   355.66121666

---------------------------
INTERNAL COORDINATES (A.U.)
---------------------------
 C      0   0   0     0.000000000000     0.00000000     0.00000000
 C      1   0   0     2.948684432662     0.00000000     0.00000000
 C      2   1   0     2.950775253228   110.76387913     0.00000000
 C      2   1   3     2.977103871472   111.58037847   122.92031211
 C      4   2   1     2.916081510645   113.18189986    63.07369474
 C      5   4   2     2.675507281380   120.62057402    73.89049074
 C      6   5   4     2.659538269857   120.91693778   180.54411212
 C      7   6   5     2.676287057125   120.84228827   359.91614633
 C      8   7   6     2.678773053977   118.29330341     0.00000000
 C      9   8   7     2.658037473607   120.75317739     0.09073451
 C      8   7   6     2.925049816674   120.52690637   180.49023111
 C     11   8   7     2.951823037695   112.97002698   119.02946172
 C     11   8   7     3.022307421766   111.89898022   242.97116427
 O     13  11   8     2.683634047702   115.55554088    33.39699236
 O     13  11   8     2.363690875667   124.84400421   211.52684949
 H      1   2   3     2.080677787249   110.31045915    58.95061675
 H      1   2   3     2.080892442891   110.51717748   299.10461293
 H      1   2   3     2.079930875397   110.66528048   178.99592907
 H      2   1   3     2.092062805316   108.31988687   241.42577467
 H      3   2   1     2.080949393317   110.53483278    61.92368201
 H      3   2   1     2.080953442820   110.38050512   302.06198021
 H      3   2   1     2.080810031010   110.61258519   182.01679822
 H      4   2   1     2.085646338424   109.04277447   301.12560878
 H      4   2   1     2.088438698209   108.20058818   184.06890791
 H      6   5   4     2.076846646846   119.52322170     0.82037628
 H      7   6   5     2.077366178070   119.75168585   180.15893560
 H      9   8   7     2.076996207066   119.65158714   179.93119242
 H     10   9   8     2.076820225025   119.56825159   180.15221987
 H     11   8   7     2.094693983298   107.84553533   359.20867465
 H     12  11   8     2.079569815423   110.74156617    56.54758360
 H     12  11   8     2.080377275747   110.24768231   296.14158884
 H     12  11   8     2.081073409243   109.55315374   176.22812071
 H     14  13  11     1.939231241954   103.64912538   355.66121666

---------------------
BASIS SET INFORMATION
---------------------
There are 3 groups of distinct atoms

 Group   1 Type C   : 6s3p contracted to 2s1p pattern {33/3}
 Group   2 Type O   : 6s3p contracted to 2s1p pattern {33/3}
 Group   3 Type H   : 3s contracted to 1s pattern {3}

Atom   0C    basis set group =>   1
Atom   1C    basis set group =>   1
Atom   2C    basis set group =>   1
Atom   3C    basis set group =>   1
Atom   4C    basis set group =>   1
Atom   5C    basis set group =>   1
Atom   6C    basis set group =>   1
Atom   7C    basis set group =>   1
Atom   8C    basis set group =>   1
Atom   9C    basis set group =>   1
Atom  10C    basis set group =>   1
Atom  11C    basis set group =>   1
Atom  12C    basis set group =>   1
Atom  13O    basis set group =>   2
Atom  14O    basis set group =>   2
Atom  15H    basis set group =>   3
Atom  16H    basis set group =>   3
Atom  17H    basis set group =>   3
Atom  18H    basis set group =>   3
Atom  19H    basis set group =>   3
Atom  20H    basis set group =>   3
Atom  21H    basis set group =>   3
Atom  22H    basis set group =>   3
Atom  23H    basis set group =>   3
Atom  24H    basis set group =>   3
Atom  25H    basis set group =>   3
Atom  26H    basis set group =>   3
Atom  27H    basis set group =>   3
Atom  28H    basis set group =>   3
Atom  29H    basis set group =>   3
Atom  30H    basis set group =>   3
Atom  31H    basis set group =>   3
Atom  32H    basis set group =>   3

-------------------------
BASIS SET IN INPUT FORMAT
-------------------------

 # Basis set for element : H 
 NewGTO H 
 S 3 
   1       3.4252509100      0.1543289707
   2       0.6239137300      0.5353281424
   3       0.1688554000      0.4446345420
  end;

 # Basis set for element : C 
 NewGTO C 
 S 3 
   1      71.6168370000      0.1543289700
   2      13.0450960000      0.5353281400
   3       3.5305122000      0.4446345400
 S 3 
   1       2.9412494000     -0.0999672301
   2       0.6834831000      0.3995128303
   3       0.2222899000      0.7001154705
 P 3 
   1       2.9412494000      0.1559162721
   2       0.6834831000      0.6076837282
   3       0.2222899000      0.3919573953
  end;

 # Basis set for element : O 
 NewGTO O 
 S 3 
   1     130.7093200000      0.1543289687
   2      23.8088610000      0.5353281356
   3       6.4436083000      0.4446345363
 S 3 
   1       5.0331513000     -0.0999672287
   2       1.1695961000      0.3995128246
   3       0.3803890000      0.7001154606
 P 3 
   1       5.0331513000      0.1559162685
   2       1.1695961000      0.6076837141
   3       0.3803890000      0.3919573862
  end;

---------------------------------
AUXILIARY/J BASIS SET INFORMATION
---------------------------------
There are 3 groups of distinct atoms

 Group   1 Type C   : 12s5p4d2f1g contracted to 6s4p3d1f1g pattern {711111/2111/211/2/1}
 Group   2 Type O   : 12s5p4d2f1g contracted to 6s4p3d1f1g pattern {711111/2111/211/2/1}
 Group   3 Type H   : 5s2p1d contracted to 3s1p1d pattern {311/2/1}

Atom   0C    basis set group =>   1
Atom   1C    basis set group =>   1
Atom   2C    basis set group =>   1
Atom   3C    basis set group =>   1
Atom   4C    basis set group =>   1
Atom   5C    basis set group =>   1
Atom   6C    basis set group =>   1
Atom   7C    basis set group =>   1
Atom   8C    basis set group =>   1
Atom   9C    basis set group =>   1
Atom  10C    basis set group =>   1
Atom  11C    basis set group =>   1
Atom  12C    basis set group =>   1
Atom  13O    basis set group =>   2
Atom  14O    basis set group =>   2
Atom  15H    basis set group =>   3
Atom  16H    basis set group =>   3
Atom  17H    basis set group =>   3
Atom  18H    basis set group =>   3
Atom  19H    basis set group =>   3
Atom  20H    basis set group =>   3
Atom  21H    basis set group =>   3
Atom  22H    basis set group =>   3
Atom  23H    basis set group =>   3
Atom  24H    basis set group =>   3
Atom  25H    basis set group =>   3
Atom  26H    basis set group =>   3
Atom  27H    basis set group =>   3
Atom  28H    basis set group =>   3
Atom  29H    basis set group =>   3
Atom  30H    basis set group =>   3
Atom  31H    basis set group =>   3
Atom  32H    basis set group =>   3

-------------------------------------
AUXILIARY/J BASIS SET IN INPUT FORMAT
-------------------------------------

 # Auxiliary/J basis set for element : H 
 NewAuxJGTO H 
 S 3 
   1      15.6752927000      0.1007184237
   2       3.6063578000      0.3404257499
   3       1.2080016000      0.6491996172
 S 1 
   1       0.4726794000      1.0000000000
 S 1 
   1       0.2018100000      1.0000000000
 P 2 
   1       2.0281365000      0.5596620919
   2       0.5358730000      0.5596620919
 D 1 
   1       2.2165124000      1.0000000000
  end;

 # Auxiliary/J basis set for element : C 
 NewAuxJGTO C 
 S 7 
   1    1861.0916331000      0.0134602335
   2     642.9939764000      0.0299160374
   3     235.1105725000      0.1008649584
   4      90.7028894000      0.2370970548
   5      36.7794552000      0.3924037254
   6      15.6046273000      0.3195862154
   7       6.8907294000      0.0530104441
 S 1 
   1       3.1478850000     -1.0000000000
 S 1 
   1       1.4777287000      1.0000000000
 S 1 
   1       0.7076466000      1.0000000000
 S 1 
   1       0.3430122000      1.0000000000
 S 1 
   1       0.1669453000      1.0000000000
 P 2 
   1      13.5472892000     -0.6769313712
   2       5.4669419000     -0.3779500978
 P 1 
   1       2.1751721000      1.0000000000
 P 1 
   1       0.8582194000      1.0000000000
 P 1 
   1       0.3376720000      1.0000000000
 D 2 
   1       5.9287253000     -0.3533329857
   2       1.9809209000     -0.7456525731
 D 1 
   1       0.8055417000     -1.0000000000
 D 1 
   1       0.3531244000     -1.0000000000
 F 2 
   1       1.6755626000      0.6311076882
   2       0.5997536000      0.4968166032
 G 1 
   1       1.0024600000     -1.0000000000
  end;

 # Auxiliary/J basis set for element : O 
 NewAuxJGTO O 
 S 7 
   1    2876.8216605000      0.0168151159
   2    1004.7443032000      0.0340137548
   3     369.7579954000      0.1194951309
   4     142.9442404000      0.2664627624
   5      57.8366425000      0.4202764046
   6      24.3864983000      0.2765077335
   7      10.6622662000      0.0057008815
 S 1 
   1       4.8070437000     -1.0000000000
 S 1 
   1       2.2210770000      1.0000000000
 S 1 
   1       1.0447795000      1.0000000000
 S 1 
   1       0.4968425000      1.0000000000
 S 1 
   1       0.2371384000      1.0000000000
 P 2 
   1      64.2613382000     -0.2731534179
   2      16.3006076000     -0.8168011598
 P 1 
   1       4.3550542000      1.0000000000
 P 1 
   1       1.2019554000      1.0000000000
 P 1 
   1       0.3354196000      1.0000000000
 D 2 
   1       9.2146611000     -0.4661230638
   2       2.8435251000     -0.6600908911
 D 1 
   1       0.9955759000     -1.0000000000
 D 1 
   1       0.3649441000     -1.0000000000
 F 2 
   1       2.6420115000      0.5931563945
   2       0.7345613000      0.5931563945
 G 1 
   1       1.3931000000     -1.0000000000
  end;


Checking for AutoStart:
The File: Ibuprofen\Ibuprofen_B3LYP_STO-3G\Ibuprofen_B3LYP_STO-3G.orcainp.gbw exists
Trying to determine its content:
     ... Fine, the file contains calculation information
     ... Fine, the calculation information was read
     ... Fine, the file contains a basis set
     ... Fine, the basis set was read
     ... Fine, the file contains a geometry
     ... Fine, the geometry was read
     ... Fine, the file contains a set of orbitals
     ... Fine, the orbitals can be read
     => possible old guess file was deleted
     => GBW file was renamed to GES file
     => GES file is set as startup file
     => Guess is set to MORead
     ... now leaving AutoStart

------------------------------------------------------------------------------
                             ORCA STARTUP CALCULATIONS
                           -- RI-GTO INTEGRALS CHOSEN --
------------------------------------------------------------------------------
------------------------------------------------------------------------------
                   ___                                                        
                  /   \      - P O W E R E D   B Y -                         
                 /     \                                                     
                 |  |  |   _    _      __       _____    __    __             
                 |  |  |  | |  | |    /  \     |  _  \  |  |  /  |          
                  \  \/   | |  | |   /    \    | | | |  |  | /  /          
                 / \  \   | |__| |  /  /\  \   | |_| |  |  |/  /          
                |  |  |   |  __  | /  /__\  \  |    /   |      \           
                |  |  |   | |  | | |   __   |  |    \   |  |\   \          
                \     /   | |  | | |  |  |  |  | |\  \  |  | \   \       
                 \___/    |_|  |_| |__|  |__|  |_| \__\ |__|  \__/        
                                                                              
                      - O R C A' S   B I G   F R I E N D -                    
                                      &                                       
                       - I N T E G R A L  F E E D E R -                       
                                                                              
 v1 FN, 2020, v2 2021, v3 2022-2024                                           
------------------------------------------------------------------------------


----------------------
SHARK INTEGRAL PACKAGE
----------------------

Number of atoms                             ...     33
Number of basis functions                   ...     93
Number of shells                            ...     63
Maximum angular momentum                    ...      1
Integral batch strategy                     ... SHARK/LIBINT Hybrid
RI-J (if used) integral strategy            ... SPLIT-RIJ (Revised 2003 algorithm where possible)
Printlevel                                  ...      1
Contraction scheme used                     ... SEGMENTED contraction
Prescreening option                         ... SCHWARTZ
   Thresh                                   ... 1.000e-10
   Tcut                                     ... 1.000e-11
   Tpresel                                  ... 1.000e-11 
Coulomb Range Separation                    ... NOT USED
Exchange Range Separation                   ... NOT USED
Multipole approximations                    ... NOT USED
Finite Nucleus Model                        ... NOT USED
CABS basis                                  ... NOT available
Auxiliary Coulomb fitting basis             ... AVAILABLE
   # of basis functions in Aux-J            ...    933
   # of shells in Aux-J                     ...    315
   Maximum angular momentum in Aux-J        ...      4
Auxiliary J/K fitting basis                 ... NOT available
Auxiliary Correlation fitting basis         ... NOT available
Auxiliary 'external' fitting basis          ... NOT available

Checking pre-screening integrals            ... done (  0.0 sec) Dimension = 63
Check shell pair data                       ... done (  0.0 sec)
Shell pair information
Shell pair cut-off parameter TPreSel        ...   1.0e-11
Total number of shell pairs                 ...      2016
Shell pairs after pre-screening             ...      1649
Total number of primitive shell pairs       ...     18144
Primitive shell pairs kept                  ...      9622
          la=0 lb=0:    912 shell pairs
          la=1 lb=0:    624 shell pairs
          la=1 lb=1:    113 shell pairs

Calculating one electron integrals          ... done (  0.0 sec)
Calculating RI/J V-Matrix + Cholesky decomp.... done (  0.0 sec)
Calculating Nuclear repulsion               ... done (  0.0 sec) ENN=    954.810285452434 Eh

Diagonalization of the overlap matrix:
Smallest eigenvalue                        ... 1.812e-01
Time for diagonalization                   ...    0.005 sec
Threshold for overlap eigenvalues          ... 1.000e-07
Number of eigenvalues below threshold      ... 0
Time for construction of square roots      ...    0.002 sec
Total time needed                          ...    0.009 sec

-------------------
DFT GRID GENERATION
-------------------

General Integration Accuracy     IntAcc      ... 4.388
Radial Grid Type                 RadialGrid  ... OptM3 with GC (2021)
Angular Grid (max. ang.)         AngularGrid ... 4 (Lebedev-302)
Angular grid pruning method      GridPruning ... 4 (adaptive)
Weight generation scheme         WeightScheme... mBecke (2022)
Basis function cutoff            BFCut       ... 1.0000e-10
Integration weight cutoff        WCut        ... 1.0000e-14
Partially contracted basis set               ... off
Rotationally invariant grid construction     ... off
Angular grids for H and He will be reduced by one unit

Total number of grid points                  ...   147189
Total number of batches                      ...     2317
Average number of points per batch           ...       63
Average number of grid points per atom       ...     4460

--------------------
COSX GRID GENERATION
--------------------

GRIDX 1
-------
General Integration Accuracy     IntAcc      ... 3.816
Radial Grid Type                 RadialGrid  ... OptM3 with GC (2021)
Angular Grid (max. ang.)         AngularGrid ... 1 (Lebedev-50)
Angular grid pruning method      GridPruning ... 4 (adaptive)
Weight generation scheme         WeightScheme... mBecke (2022)
Basis function cutoff            BFCut       ... 1.0000e-10
Integration weight cutoff        WCut        ... 1.0000e-14
Partially contracted basis set               ... on
Rotationally invariant grid construction     ... off
Angular grids for H and He will be reduced by one unit

Total number of grid points                  ...    18781
Total number of batches                      ...      167
Average number of points per batch           ...      112
Average number of grid points per atom       ...      569
UseSFitting                                  ... on

GRIDX 2
-------
General Integration Accuracy     IntAcc      ... 4.020
Radial Grid Type                 RadialGrid  ... OptM3 with GC (2021)
Angular Grid (max. ang.)         AngularGrid ... 2 (Lebedev-110)
Angular grid pruning method      GridPruning ... 4 (adaptive)
Weight generation scheme         WeightScheme... mBecke (2022)
Basis function cutoff            BFCut       ... 1.0000e-10
Integration weight cutoff        WCut        ... 1.0000e-14
Partially contracted basis set               ... on
Rotationally invariant grid construction     ... off
Angular grids for H and He will be reduced by one unit

Total number of grid points                  ...    39850
Total number of batches                      ...      328
Average number of points per batch           ...      121
Average number of grid points per atom       ...     1208
UseSFitting                                  ... on

GRIDX 3
-------
General Integration Accuracy     IntAcc      ... 4.338
Radial Grid Type                 RadialGrid  ... OptM3 with GC (2021)
Angular Grid (max. ang.)         AngularGrid ... 3 (Lebedev-194)
Angular grid pruning method      GridPruning ... 4 (adaptive)
Weight generation scheme         WeightScheme... mBecke (2022)
Basis function cutoff            BFCut       ... 1.0000e-10
Integration weight cutoff        WCut        ... 1.0000e-14
Partially contracted basis set               ... on
Rotationally invariant grid construction     ... off
Angular grids for H and He will be reduced by one unit

Total number of grid points                  ...    86842
Total number of batches                      ...      695
Average number of points per batch           ...      124
Average number of grid points per atom       ...     2632
UseSFitting                                  ... on
Initializing property integral containers    ... done (  0.0 sec)

SHARK setup successfully completed in   1.5 seconds

Maximum memory used throughout the entire STARTUP-calculation: 51.6 MB
-------------------------------------------------------------------------------
                                 ORCA GUESS
                   Start orbitals & Density for SCF / CASSCF
-------------------------------------------------------------------------------

------------
SCF SETTINGS
------------
Hamiltonian:
 Density Functional     Method          .... DFT(GTOs)
 Exchange Functional    Exchange        .... B88
   X-Alpha parameter    XAlpha          ....  0.666667
   Becke's b parameter  XBeta           ....  0.004200
 Correlation Functional Correlation     .... LYP
 LDA part of GGA corr.  LDAOpt          .... VWN-5
 Gradients option       PostSCFGGA      .... off
 Hybrid DFT is turned on
   Fraction HF Exchange ScalHFX         ....  0.200000
   Scaling of DF-GGA-X  ScalDFX         ....  0.720000
   Scaling of DF-GGA-C  ScalDFC         ....  0.810000
   Scaling of DF-LDA-C  ScalLDAC        ....  1.000000
   Perturbative correction              ....  0.000000
   NL short-range parameter             ....  4.800000
 RI-approximation to the Coulomb term is turned on
   Number of AuxJ basis functions       .... 933
   RIJ-COSX (HFX calculated with COS-X)).... on


General Settings:
 Integral files         IntName         .... Ibuprofen\Ibuprofen_B3LYP_STO-3G\Ibuprofen_B3LYP_STO-3G.orcainp
 Hartree-Fock type      HFTyp           .... RHF
 Total Charge           Charge          ....    0
 Multiplicity           Mult            ....    1
 Number of Electrons    NEL             ....  112
 Basis Dimension        Dim             ....   93
 Nuclear Repulsion      ENuc            ....    954.8102854524 Eh

Convergence Acceleration:
 AO-DIIS                CNVDIIS         .... on
   Start iteration      DIISMaxIt       ....    12
   Startup error        DIISStart       ....  0.200000
   # of expansion vecs  DIISMaxEq       ....     5
   Bias factor          DIISBfac        ....   1.050
   Max. coefficient     DIISMaxC        ....  10.000
 MO-DIIS                CNVKDIIS        .... off
 Trust-Rad. Augm. Hess. CNVTRAH         .... auto
   Auto Start mean grad. ratio tolernc. ....  1.125000
   Auto Start start iteration           ....     1
   Auto Start num. interpolation iter.  ....    10
   Max. Number of Micro iterations      ....    24
   Max. Number of Macro iterations      .... Maxiter - #DIIS iter
   Number of Davidson start vectors     ....     2
   Converg. threshold    (grad. norm)   ....   5.000e-05
   Grad. Scal. Fac. for Micro threshold ....   0.100
   Minimum threshold for Micro iter.    ....   1.000e-02
   NR start threshold (gradient norm)   ....   1.000e-04
   Initial trust radius                 ....   0.400
   Minimum AH scaling param. (alpha)    ....   1.000
   Maximum AH scaling param. (alpha)    .... 1000.000
   Quad. conv. algorithm                .... NR
   White noise on init. David. guess    .... on
   Maximum white noise                  ....   0.010
   Pseudo random numbers                .... off
   Inactive MOs                         .... canonical
   Orbital update algorithm             .... Taylor
   Preconditioner                       .... Diag
   Full preconditioner red. dimension   ....   250
 SOSCF                  CNVSOSCF        .... on
   Start iteration      SOSCFMaxIt      ....   150
   Startup grad/error   SOSCFStart      ....  0.003300
   Hessian update       SOSCFHessUp     .... L-BFGS
 Level Shifting         CNVShift        .... on
   Level shift para.    LevelShift      ....    0.2500
   Turn off err/grad.   ShiftErr        ....    0.0010
 Zerner damping         CNVZerner       .... off
 Static damping         CNVDamp         .... on
   Fraction old density DampFac         ....    0.7000
   Max. Damping (<1)    DampMax         ....    0.9800
   Min. Damping (>=0)   DampMin         ....    0.0000
   Turn off err/grad.   DampErr         ....    0.1000

SCF Procedure:
 Maximum # iterations   MaxIter         ....   125
 SCF integral mode      SCFMode         .... Direct
   Integral package                     .... SHARK and LIBINT hybrid scheme
 Reset frequency        DirectResetFreq ....    20
 Integral Threshold     Thresh          ....  1.000e-10 Eh
 Primitive CutOff       TCut            ....  1.000e-11 Eh

Convergence Tolerance:
 Convergence Check Mode ConvCheckMode   .... Total+1el-Energy
 Convergence forced     ConvForced      .... 1
 Energy Change          TolE            ....  1.000e-06 Eh
 1-El. energy change                    ....  1.000e-03 Eh
 Orbital Gradient       TolG            ....  5.000e-05
 Orbital Rotation angle TolX            ....  5.000e-05
 DIIS Error             TolErr          ....  1.000e-06

---------------------
INITIAL GUESS: MOREAD
---------------------
Guess MOs are being read from file: Ibuprofen\Ibuprofen_B3LYP_STO-3G\Ibuprofen_B3LYP_STO-3G.orcainp.ges
Input Geometry matches current geometry (good)
Input basis set matches current basis set (good)
Occupation numbers will be reassigned to an Aufbau configuration
MOs were renormalized
MOs were reorthogonalized (Cholesky)
                      ------------------
                      INITIAL GUESS DONE (   0.0 sec)
                      ------------------
----------------------
INITIAL GUESS ORBITALS
----------------------
                      0         1         2         3         4         5   
                 -18.92118 -18.86128 -10.09397 -10.03439 -10.01714 -10.01207
                   2.00000   2.00000   2.00000   2.00000   2.00000   2.00000
                  --------  --------  --------  --------  --------  --------
  0C   1s         0.000001 -0.000000 -0.000001 -0.000001 -0.020782  0.000038
  0C   2s        -0.000005  0.000000 -0.000001 -0.000001 -0.008100  0.000011
  0C   1pz        0.000001 -0.000000  0.000000  0.000000 -0.004580  0.000001
  0C   1px       -0.000004  0.000000 -0.000001 -0.000000  0.001208  0.000002
  0C   1py        0.000000 -0.000000  0.000000 -0.000000  0.003057  0.000000
  1C   1s         0.000000  0.000000  0.000000  0.000001  0.986138 -0.000599
  1C   2s         0.000000 -0.000000  0.000000  0.000000  0.044729  0.000025
  1C   1pz       -0.000000  0.000000 -0.000000 -0.000000  0.000368 -0.000002
  1C   1px        0.000000  0.000000  0.000000  0.000000  0.000249  0.000007
  1C   1py       -0.000000  0.000000 -0.000000 -0.000000 -0.000085 -0.000038
  2C   1s         0.000000 -0.000000 -0.000000 -0.000000 -0.021866  0.000018
  2C   2s        -0.000000  0.000000 -0.000000 -0.000000 -0.008151  0.000002
  2C   1pz        0.000000 -0.000000  0.000000  0.000000  0.001055 -0.000000
  2C   1px       -0.000000  0.000000  0.000000 -0.000000 -0.005540  0.000001
  2C   1py       -0.000000  0.000000 -0.000000  0.000000  0.000092 -0.000000
  3C   1s         0.000000 -0.000000  0.000000 -0.000024 -0.084548 -0.007192
  3C   2s        -0.000000  0.000000  0.000000 -0.000009 -0.010789 -0.000415
  3C   1pz        0.000000 -0.000000  0.000000  0.000001 -0.000549  0.000007
  3C   1px       -0.000000 -0.000000  0.000000 -0.000006  0.001721 -0.000077
  3C   1py       -0.000000  0.000000 -0.000000  0.000001 -0.005222  0.000013
  4C   1s         0.000000  0.000000  0.000002 -0.000096  0.000672  0.018369
  4C   2s        -0.000002 -0.000000  0.000001  0.000013  0.000683  0.001031
  4C   1pz       -0.000000  0.000000  0.000000  0.000002  0.000054 -0.000016
  4C   1px       -0.000000  0.000000  0.000003 -0.000020 -0.000605  0.000200
  4C   1py        0.000002 -0.000000 -0.000000  0.000002  0.000026 -0.000013
  5C   1s         0.000000  0.000000  0.000001 -0.000196  0.000393 -0.000495
  5C   2s        -0.000005 -0.000001 -0.000001 -0.000046  0.000026 -0.000896
  5C   1pz        0.000000  0.000000  0.000001  0.000060 -0.000056  0.000220
  5C   1px       -0.000007 -0.000001 -0.000001 -0.000024 -0.000035 -0.000272
  5C   1py       -0.000008  0.000000 -0.000007  0.000012  0.000022  0.000063
  6C   1s        -0.000014  0.000001  0.000044  0.000019  0.000028  0.037541
  6C   2s         0.000034 -0.000003 -0.000001  0.000417  0.000007  0.010923
  6C   1pz       -0.000012  0.000003 -0.000015 -0.000124 -0.000002 -0.005634
  6C   1px        0.000016 -0.000005  0.000003  0.000274 -0.000005  0.002489
  6C   1py        0.000091 -0.000009  0.000060 -0.000035 -0.000003 -0.001346
  7C   1s        -0.000064 -0.000006 -0.000345 -0.021499  0.000042 -0.988602
  7C   2s         0.000342  0.000001  0.000105 -0.008246  0.000001 -0.044010
  7C   1pz       -0.000102 -0.000049  0.000060  0.000421 -0.000000 -0.000183
  7C   1px        0.000031 -0.000017  0.000061 -0.005735 -0.000002  0.002044
  7C   1py        0.000418  0.000058  0.000001  0.000484  0.000001 -0.000334
  8C   1s        -0.000011 -0.000001 -0.000012  0.000035  0.000035  0.036924
  8C   2s         0.000017  0.000001  0.000109  0.000439  0.000004  0.010865
  8C   1pz       -0.000033 -0.000020 -0.000036 -0.000009  0.000004  0.005098
  8C   1px        0.000013 -0.000005 -0.000069  0.000202 -0.000003  0.003584
  8C   1py        0.000057 -0.000010 -0.000090 -0.000014 -0.000006  0.000865
  9C   1s        -0.000000  0.000000 -0.000013 -0.000231  0.000292 -0.000467
  9C   2s        -0.000001 -0.000001 -0.000037 -0.000075  0.000017 -0.000887
  9C   1pz        0.000005  0.000002  0.000001 -0.000049  0.000019 -0.000168
  9C   1px       -0.000003 -0.000001 -0.000023 -0.000055  0.000000 -0.000307
  9C   1py       -0.000003  0.000000  0.000021 -0.000007  0.000042 -0.000017
 10C   1s        -0.000036  0.000023 -0.007890  0.989910 -0.000002 -0.022756
 10C   2s         0.000257 -0.000159 -0.006458  0.044237  0.000000  0.005961
 10C   1pz       -0.000012  0.000232  0.003209  0.000736  0.000000  0.000481
 10C   1px       -0.000216 -0.000384 -0.002041  0.000025 -0.000000 -0.005494
 10C   1py        0.000479  0.000219 -0.003469  0.000016  0.000000  0.000437
 11C   1s         0.000002  0.000009 -0.000328 -0.017971  0.000000  0.009297
 11C   2s         0.000038 -0.000046  0.000285 -0.007947  0.000000  0.000395
 11C   1pz        0.000084  0.000059  0.000217 -0.001736 -0.000000  0.000062
 11C   1px       -0.000046 -0.000093 -0.000063  0.001689  0.000000 -0.000250
 11C   1py       -0.000033  0.000060 -0.000147 -0.005087  0.000000  0.000110
 12C   1s         0.000612 -0.000689  0.991245  0.009356 -0.000000 -0.000619
 12C   2s        -0.004974  0.007988  0.037461 -0.006398  0.000000  0.000037
 12C   1pz        0.000095 -0.004250 -0.000546 -0.003344 -0.000000  0.000070
 12C   1px        0.002283  0.006021  0.000859  0.002143 -0.000000 -0.000191
 12C   1py       -0.004590 -0.000845  0.000060  0.003861  0.000000 -0.000033
 13O   1s         0.993512  0.001061  0.000648 -0.000036 -0.000000  0.000092
 13O   2s         0.028775 -0.000351 -0.005590  0.000335  0.000000 -0.000704
 13O   1pz        0.001975  0.000290  0.000397  0.000188  0.000000 -0.000317
 13O   1px       -0.000917 -0.000394 -0.002232 -0.000163 -0.000000  0.000358
 13O   1py       -0.003607  0.000030  0.003159 -0.000188 -0.000000 -0.000001
 14O   1s         0.000974 -0.993578  0.000555 -0.000022 -0.000000 -0.000009
 14O   2s         0.000325 -0.028863 -0.007618  0.000121 -0.000000  0.000081
 14O   1pz       -0.000047 -0.003328 -0.001811  0.000173  0.000000  0.000053
 14O   1px       -0.000220  0.004747  0.002610 -0.000043  0.000000 -0.000020
 14O   1py        0.000539 -0.000742 -0.000489 -0.000333 -0.000000 -0.000005
 15H   1s         0.000000 -0.000000 -0.000000  0.000000  0.000330 -0.000000
 16H   1s         0.000000 -0.000000 -0.000000  0.000000  0.000259 -0.000001
 17H   1s         0.000011 -0.000000  0.000002  0.000001  0.000328 -0.000014
 18H   1s         0.000000 -0.000000  0.000000  0.000000 -0.009189 -0.000000
 19H   1s        -0.000000  0.000000  0.000000 -0.000000  0.000271 -0.000000
 20H   1s        -0.000000  0.000000 -0.000000 -0.000000  0.000348  0.000001
 21H   1s        -0.000000  0.000000  0.000000 -0.000000  0.000334 -0.000001
 22H   1s        -0.000000 -0.000000 -0.000000  0.000000  0.000849  0.000062
 23H   1s        -0.000000  0.000000 -0.000000  0.000001  0.000906  0.000061
 24H   1s         0.000000 -0.000000  0.000000 -0.000013  0.000137  0.000096
 25H   1s         0.000015  0.000000  0.000009  0.000020 -0.000001 -0.000476
 26H   1s         0.000018 -0.000033 -0.000260 -0.000268  0.000001 -0.000468
 27H   1s         0.000000  0.000001  0.000007 -0.000007  0.000007  0.000095
 28H   1s         0.000050 -0.000040 -0.000143 -0.009224  0.000000  0.000105
 29H   1s         0.000007  0.000014 -0.000135  0.000243 -0.000000  0.000006
 30H   1s        -0.000027  0.000001 -0.000198  0.000299 -0.000000  0.000088
 31H   1s        -0.000035  0.000236 -0.000279  0.000293 -0.000000  0.000098
 32H   1s        -0.006527  0.000128 -0.001272 -0.000370 -0.000000  0.001872
                      6         7         8         9        10        11   
                 -10.01141 -10.01022 -10.00730 -10.00243 -10.00222  -9.99988
                   2.00000   2.00000   2.00000   2.00000   2.00000   2.00000
                  --------  --------  --------  --------  --------  --------
  0C   1s        -0.003658 -0.001795 -0.000001  0.000045  0.000290  0.002158
  0C   2s        -0.000684 -0.000102 -0.000000  0.000005  0.000041  0.000253
  0C   1pz       -0.000239 -0.000204  0.000000 -0.000000 -0.000002 -0.000020
  0C   1px        0.000016  0.000090 -0.000000  0.000002  0.000021  0.000124
  0C   1py        0.000245  0.000268 -0.000000 -0.000001  0.000004  0.000034
  1C   1s         0.075791  0.040402  0.000001 -0.000074 -0.000059 -0.000058
  1C   2s        -0.002677 -0.001357 -0.000000  0.000003  0.000002 -0.000017
  1C   1pz        0.000463  0.000344  0.000000  0.000003  0.000003 -0.000012
  1C   1px       -0.001429 -0.001036 -0.000000  0.000001  0.000001  0.000006
  1C   1py        0.004632  0.002502  0.000000 -0.000000 -0.000003  0.000000
  2C   1s        -0.003527 -0.003119 -0.000000 -0.000013  0.000010  0.000002
  2C   2s        -0.000521 -0.000487 -0.000000 -0.000001  0.000001  0.000003
  2C   1pz        0.000062  0.000065  0.000000 -0.000001 -0.000000  0.000001
  2C   1px       -0.000311 -0.000282 -0.000000 -0.000000  0.000001  0.000004
  2C   1py        0.000092  0.000130  0.000000  0.000000 -0.000000  0.000003
  3C   1s         0.866793  0.471431  0.000023 -0.000582 -0.000505  0.002009
  3C   2s         0.042130  0.014903 -0.000000  0.000041  0.000051  0.000083
  3C   1pz       -0.000286  0.000462  0.000000  0.000056 -0.000047 -0.000079
  3C   1px        0.002633 -0.004843 -0.000001  0.000045  0.000042 -0.000118
  3C   1py       -0.001247 -0.000108  0.000000  0.000009 -0.000013 -0.000040
  4C   1s        -0.471271  0.869705  0.000090  0.003532  0.006293  0.031675
  4C   2s        -0.027388  0.035218  0.000004 -0.001146 -0.001777 -0.006544
  4C   1pz       -0.000364 -0.000384  0.000000 -0.000665  0.000757  0.005851
  4C   1px        0.004152  0.004509 -0.000001 -0.000525 -0.000646 -0.002197
  4C   1py       -0.000387 -0.000304 -0.000000 -0.000110  0.000197  0.001365
  5C   1s         0.014123 -0.030102 -0.000058  0.116800  0.027669 -0.109551
  5C   2s         0.005259 -0.009353 -0.000002  0.014264  0.002596 -0.004866
  5C   1pz       -0.002342  0.004529  0.000000 -0.000758 -0.000325  0.000259
  5C   1px       -0.001861  0.003097  0.000000  0.006181  0.000946 -0.000023
  5C   1py       -0.000418  0.000758  0.000008 -0.000503 -0.000121  0.000057
  6C   1s        -0.000062 -0.001215  0.000014 -0.973443 -0.132309  0.000388
  6C   2s        -0.000207  0.000395 -0.000072 -0.043983 -0.006080  0.000906
  6C   1pz       -0.000009  0.000035  0.000050  0.000794  0.000001  0.000273
  6C   1px        0.000231 -0.000311 -0.000022  0.001642  0.000383 -0.000572
  6C   1py       -0.000009  0.000028 -0.000040  0.000076 -0.000026  0.000090
  7C   1s        -0.015165  0.012682  0.008956 -0.033031 -0.042719  0.006031
  7C   2s        -0.000580  0.000437  0.000348  0.006324  0.008338 -0.000843
  7C   1pz        0.000004 -0.000012  0.000015  0.006027 -0.004035  0.000694
  7C   1px       -0.000047  0.000161 -0.000031 -0.002136 -0.004026  0.000473
  7C   1py       -0.000000 -0.000010  0.000030  0.001361 -0.000658  0.000124
  8C   1s         0.000007 -0.001063 -0.000959  0.136554 -0.968184  0.152023
  8C   2s        -0.000191  0.000424 -0.000129  0.006103 -0.044098 -0.002433
  8C   1pz       -0.000034  0.000021  0.000008  0.000237 -0.001038 -0.000509
  8C   1px        0.000218 -0.000327 -0.000029 -0.000051  0.001732  0.005981
  8C   1py       -0.000014  0.000025  0.000015  0.000054 -0.000348 -0.000442
  9C   1s         0.014704 -0.031465 -0.000084 -0.007438  0.153264  0.972431
  9C   2s         0.005245 -0.009407  0.000001 -0.001472  0.015875  0.041450
  9C   1pz        0.002663 -0.004954 -0.000002  0.000245 -0.000250  0.000884
  9C   1px       -0.001392  0.002100  0.000001 -0.000733  0.006271 -0.000019
  9C   1py        0.000611 -0.001168 -0.000006  0.000094 -0.000408  0.000172
 10C   1s        -0.000368  0.000377  0.019684 -0.000704 -0.000896  0.000360
 10C   2s         0.000100 -0.000109 -0.006268 -0.000024 -0.000020 -0.000055
 10C   1pz        0.000009 -0.000010  0.001721 -0.000097  0.000031  0.000043
 10C   1px       -0.000091  0.000097 -0.001612 -0.000110 -0.000102  0.000068
 10C   1py        0.000007 -0.000009  0.005128 -0.000021 -0.000000  0.000007
 11C   1s         0.000167 -0.000215  0.990131  0.000457 -0.000535  0.000162
 11C   2s         0.000007 -0.000010  0.045346  0.000013 -0.000050  0.000017
 11C   1pz        0.000001 -0.000000 -0.000173 -0.000023 -0.000002 -0.000001
 11C   1px       -0.000003  0.000002  0.000207  0.000007 -0.000059  0.000016
 11C   1py        0.000001 -0.000001 -0.000486  0.000018  0.000017 -0.000004
 12C   1s        -0.000008  0.000006  0.000573  0.000033 -0.000025  0.000024
 12C   2s        -0.000000  0.000001 -0.000016 -0.000002 -0.000012 -0.000002
 12C   1pz        0.000001 -0.000001  0.000062 -0.000025 -0.000007  0.000007
 12C   1px       -0.000002  0.000000 -0.000065  0.000016 -0.000044  0.000015
 12C   1py       -0.000000  0.000000  0.000134 -0.000028 -0.000005  0.000001
 13O   1s         0.000002 -0.000001  0.000005  0.000022  0.000025 -0.000004
 13O   2s        -0.000011  0.000009 -0.000025 -0.000139 -0.000171  0.000026
 13O   1pz       -0.000005  0.000004 -0.000011 -0.000071 -0.000086  0.000012
 13O   1px        0.000006 -0.000005 -0.000044  0.000100  0.000092 -0.000013
 13O   1py       -0.000000  0.000000  0.000047  0.000013  0.000021 -0.000004
 14O   1s        -0.000000  0.000000 -0.000012  0.000001 -0.000001  0.000000
 14O   2s         0.000001 -0.000001  0.000107 -0.000012  0.000013 -0.000002
 14O   1pz        0.000001 -0.000001  0.000040 -0.000003  0.000013 -0.000003
 14O   1px       -0.000000  0.000000 -0.000004  0.000008 -0.000000 -0.000001
 14O   1py       -0.000000  0.000000  0.000001  0.000001  0.000004 -0.000001
 15H   1s        -0.000063 -0.000091  0.000000 -0.000000 -0.000005 -0.000035
 16H   1s         0.000079  0.000030  0.000000 -0.000001  0.000001 -0.000004
 17H   1s         0.000280 -0.000510  0.000000 -0.000005 -0.000064 -0.000381
 18H   1s        -0.000542 -0.000457 -0.000000 -0.000004 -0.000005  0.000001
 19H   1s         0.000071  0.000044 -0.000000  0.000001 -0.000000  0.000004
 20H   1s        -0.000083 -0.000047  0.000000  0.000000  0.000000 -0.000000
 21H   1s         0.000114  0.000077  0.000000  0.000001  0.000001  0.000000
 22H   1s        -0.008092 -0.004310 -0.000000  0.000001  0.000013 -0.000131
 23H   1s        -0.008022 -0.004413 -0.000000  0.000003 -0.000000 -0.000054
 24H   1s        -0.000347  0.000308 -0.000001 -0.001224 -0.000217  0.000882
 25H   1s         0.000029 -0.000069  0.000002  0.008838  0.001288 -0.000108
 26H   1s         0.000025 -0.000072  0.000196 -0.001152  0.008829 -0.001216
 27H   1s        -0.000227  0.000379 -0.000003  0.000150 -0.001540 -0.008793
 28H   1s        -0.000001  0.000005 -0.000041  0.000117  0.000115 -0.000023
 29H   1s        -0.000002  0.000004 -0.009181  0.000010  0.000031 -0.000023
 30H   1s         0.000001 -0.000000 -0.009166  0.000017  0.000025 -0.000003
 31H   1s         0.000001 -0.000000 -0.009168 -0.000007  0.000034 -0.000009
 32H   1s         0.000030 -0.000025 -0.000130  0.000338  0.000394 -0.000055
                     12        13        14        15        16        17   
                  -9.99944  -9.99504  -9.99392  -1.00236  -0.93050  -0.80839
                   2.00000   2.00000   2.00000   2.00000   2.00000   2.00000
                  --------  --------  --------  --------  --------  --------
  0C   1s        -0.000879 -0.039294  0.989319 -0.000005 -0.000012  0.012844
  0C   2s        -0.000087 -0.001820  0.045338  0.000013  0.000027 -0.033251
  0C   1pz        0.000004 -0.000027 -0.000582  0.000001  0.000004 -0.006056
  0C   1px       -0.000038  0.000148  0.000148  0.000007  0.000008 -0.000204
  0C   1py       -0.000002  0.000001  0.000407 -0.000003 -0.000008  0.006870
  1C   1s         0.000255  0.022774  0.023478 -0.000007 -0.000022  0.025706
  1C   2s        -0.000047 -0.005761 -0.006302  0.000017  0.000053 -0.067160
  1C   1pz       -0.000042 -0.001253  0.004530 -0.000001 -0.000003  0.002455
  1C   1px        0.000007  0.005562 -0.001010  0.000006  0.000014 -0.006718
  1C   1py       -0.000024  0.000017 -0.003052 -0.000006 -0.000015  0.010864
  2C   1s         0.000321  0.989315  0.038879 -0.000001 -0.000004  0.010349
  2C   2s         0.000031  0.045303  0.001768  0.000003  0.000010 -0.026917
  2C   1pz       -0.000002  0.000127  0.000136 -0.000000 -0.000001  0.001757
  2C   1px        0.000005 -0.000726 -0.000082  0.000001  0.000004 -0.007508
  2C   1py       -0.000004  0.000030 -0.000073 -0.000000 -0.000001  0.001316
  3C   1s        -0.002347  0.002676  0.002440 -0.000030 -0.000073  0.045587
  3C   2s        -0.000125  0.000095  0.000109  0.000078  0.000189 -0.121749
  3C   1pz       -0.000050 -0.000010  0.000091 -0.000004 -0.000008  0.002255
  3C   1px        0.000124  0.000168 -0.000031  0.000042  0.000085 -0.028082
  3C   1py        0.000032 -0.000025 -0.000101 -0.000002 -0.000005 -0.001989
  4C   1s        -0.038029  0.001134 -0.000231 -0.000244 -0.000414  0.102206
  4C   2s         0.008300 -0.000104  0.000057  0.000571  0.000991 -0.259404
  4C   1pz        0.004223 -0.000010  0.000031 -0.000041 -0.000046  0.003619
  4C   1px        0.003942  0.000097  0.000027  0.000222  0.000339 -0.043986
  4C   1py        0.000658 -0.000078  0.000034 -0.000021 -0.000018  0.002028
  5C   1s        -0.976618  0.000310 -0.000631 -0.000399 -0.000595  0.094308
  5C   2s        -0.041928  0.000007 -0.000029  0.000962  0.001445 -0.237669
  5C   1pz        0.000865 -0.000001  0.000002 -0.000175 -0.000288  0.050295
  5C   1px        0.000004  0.000000  0.000002  0.000429  0.000506 -0.019293
  5C   1py        0.000197 -0.000002  0.000029 -0.000013 -0.000012  0.011274
  6C   1s        -0.121621  0.000025 -0.000028 -0.001635 -0.001633  0.098004
  6C   2s         0.003831 -0.000002  0.000004  0.003638  0.003664 -0.247574
  6C   1pz        0.000472  0.000001 -0.000001 -0.001553 -0.001322  0.049959
  6C   1px       -0.006061  0.000002 -0.000003  0.000904  0.000600  0.024911
  6C   1py        0.000434  0.000001 -0.000002 -0.000376 -0.000071  0.008303
  7C   1s        -0.005972  0.000006  0.000002 -0.006791 -0.004069  0.111755
  7C   2s         0.000747  0.000000 -0.000001  0.015110  0.009102 -0.285343
  7C   1pz        0.000472 -0.000000  0.000000 -0.002327 -0.001008 -0.002846
  7C   1px       -0.000319  0.000001 -0.000000  0.005521  0.000878  0.040434
  7C   1py        0.000113  0.000000  0.000000  0.002401  0.002713 -0.005956
  8C   1s        -0.028207  0.000020 -0.000080 -0.002430 -0.001949  0.098022
  8C   2s        -0.000121  0.000001  0.000007  0.005616  0.004661 -0.247690
  8C   1pz        0.000288 -0.000001  0.000001  0.001184  0.001024 -0.052892
  8C   1px       -0.000706 -0.000000 -0.000005  0.002269  0.001186  0.014172
  8C   1py        0.000099 -0.000001  0.000000  0.001125  0.001111 -0.012830
  9C   1s        -0.104497  0.000079 -0.002285 -0.000489 -0.000649  0.094190
  9C   2s        -0.004330 -0.000003 -0.000018  0.001185  0.001545 -0.237450
  9C   1pz        0.000045 -0.000006 -0.000002  0.000075  0.000158 -0.045832
  9C   1px        0.000045 -0.000003 -0.000007  0.000595  0.000605 -0.029482
  9C   1py        0.000008  0.000005  0.000083  0.000009  0.000083 -0.008200
 10C   1s        -0.000373  0.000001  0.000001 -0.021126  0.003450  0.053533
 10C   2s         0.000055 -0.000000  0.000000  0.052076 -0.011345 -0.144898
 10C   1pz        0.000023 -0.000000  0.000000 -0.013947  0.007101 -0.003101
 10C   1px       -0.000083  0.000000 -0.000000  0.006978 -0.010286  0.033340
 10C   1py        0.000009 -0.000000 -0.000000  0.019689  0.001208 -0.000215
 11C   1s        -0.000030  0.000000  0.000000 -0.004863  0.004547  0.024119
 11C   2s        -0.000001 -0.000000 -0.000000  0.011565 -0.010797 -0.063150
 11C   1pz       -0.000006 -0.000000 -0.000000 -0.000423  0.001694 -0.004674
 11C   1px       -0.000002 -0.000000 -0.000000 -0.000007 -0.001612  0.009212
 11C   1py        0.000006 -0.000000 -0.000000  0.005706 -0.004412 -0.014743
 12C   1s        -0.000001 -0.000000  0.000001 -0.128719  0.049420  0.005227
 12C   2s         0.000001  0.000000 -0.000001  0.310798 -0.113237 -0.014073
 12C   1pz       -0.000006  0.000000 -0.000000 -0.047291  0.091444 -0.016544
 12C   1px        0.000000 -0.000000  0.000001  0.031100 -0.167955  0.013424
 12C   1py       -0.000008 -0.000000 -0.000000  0.058752  0.089685  0.023197
 13O   1s         0.000004 -0.000000  0.000001 -0.167967 -0.151132 -0.014863
 13O   2s        -0.000024  0.000000 -0.000005  0.593341  0.548671  0.057111
 13O   1pz       -0.000012  0.000000 -0.000002  0.050360  0.063357  0.001383
 13O   1px        0.000017 -0.000000  0.000003 -0.010116 -0.049661  0.001218
 13O   1py        0.000002 -0.000000  0.000000 -0.117585 -0.075885 -0.002052
 14O   1s         0.000000 -0.000000  0.000000 -0.126453  0.174516 -0.006436
 14O   2s        -0.000002  0.000000 -0.000000  0.431933 -0.610379  0.023091
 14O   1pz        0.000000 -0.000000 -0.000000  0.072215 -0.087457  0.000769
 14O   1px        0.000002 -0.000000  0.000000 -0.106370  0.120660 -0.002819
 14O   1py        0.000000  0.000000 -0.000000  0.022739 -0.012234  0.004768
 15H   1s         0.000009  0.000402 -0.009185  0.000001  0.000003 -0.005703
 16H   1s         0.000007  0.000392 -0.009180  0.000002  0.000004 -0.006909
 17H   1s         0.000099  0.000215 -0.009196  0.000004  0.000025 -0.009993
 18H   1s         0.000128 -0.000079 -0.000076  0.000006  0.000014 -0.015052
 19H   1s        -0.000008 -0.009181 -0.000324  0.000000  0.000002 -0.005522
 20H   1s        -0.000005 -0.009182 -0.000330  0.000000  0.000001 -0.004803
 21H   1s        -0.000013 -0.009170 -0.000509  0.000000  0.000002 -0.005400
 22H   1s         0.000125  0.000017 -0.000012  0.000011  0.000028 -0.023739
 23H   1s         0.000127 -0.000019 -0.000171  0.000009  0.000026 -0.023427
 24H   1s         0.008863  0.000003  0.000006  0.000093  0.000170 -0.042152
 25H   1s         0.000957 -0.000001  0.000000  0.000542  0.000609 -0.044293
 26H   1s         0.000324 -0.000001  0.000001  0.001613  0.000693 -0.044632
 27H   1s         0.001054 -0.000004  0.000040  0.000116  0.000193 -0.041963
 28H   1s         0.000059  0.000000 -0.000000  0.006532 -0.001003 -0.029299
 29H   1s         0.000003  0.000000 -0.000000  0.002092 -0.002467 -0.014055
 30H   1s         0.000004  0.000000  0.000000  0.001170 -0.001093 -0.013186
 31H   1s         0.000001  0.000000  0.000000  0.003952 -0.005767 -0.010802
 32H   1s         0.000060 -0.000000  0.000012  0.098913  0.112710  0.000826
                     18        19        20        21        22        23   
                  -0.76228  -0.73729  -0.69549  -0.68896  -0.63964  -0.63222
                   2.00000   2.00000   2.00000   2.00000   2.00000   2.00000
                  --------  --------  --------  --------  --------  --------
  0C   1s         0.069377  0.068341  0.003974  0.056781 -0.174536 -0.022228
  0C   2s        -0.185002 -0.185033 -0.011000 -0.158251  0.502145  0.063967
  0C   1pz       -0.030030 -0.026694 -0.003342 -0.013148 -0.022119 -0.000813
  0C   1px        0.007999  0.012037  0.002724  0.013470  0.020637 -0.015225
  0C   1py        0.025415  0.017308 -0.001118 -0.000621  0.016913  0.018811
  1C   1s         0.116159  0.097797  0.007854  0.044893 -0.000828  0.006850
  1C   2s        -0.311919 -0.266577 -0.022014 -0.125848  0.002322 -0.020935
  1C   1pz        0.011352  0.010205 -0.003681  0.008821 -0.097679  0.007418
  1C   1px       -0.001179  0.018366  0.003967  0.042303  0.095019 -0.076917
  1C   1py        0.019134 -0.006855 -0.005029 -0.051276  0.078585  0.082795
  2C   1s         0.067836  0.073378  0.009842  0.067938  0.134096 -0.099111
  2C   2s        -0.180937 -0.198622 -0.027306 -0.189528 -0.386139  0.286912
  2C   1pz        0.009699  0.009256  0.000239  0.006090 -0.021058  0.002624
  2C   1px       -0.038070 -0.033318 -0.002484 -0.013152  0.021864 -0.024444
  2C   1py        0.003771  0.000471 -0.000750 -0.008050  0.017749  0.019542
  3C   1s         0.106467  0.032149 -0.009487 -0.073326  0.040884  0.127365
  3C   2s        -0.287681 -0.086567  0.026877  0.207609 -0.118639 -0.371415
  3C   1pz       -0.000335 -0.004424 -0.016503 -0.001714 -0.022747  0.000291
  3C   1px       -0.009114  0.041938  0.006991  0.058931  0.026717  0.008630
  3C   1py       -0.030807 -0.038273 -0.008134 -0.035182  0.017787  0.017067
  4C   1s         0.075626 -0.061133 -0.015453 -0.101052 -0.002695 -0.010545
  4C   2s        -0.197665  0.161418  0.041992  0.275839  0.008250  0.029128
  4C   1pz       -0.003891 -0.004648 -0.120943  0.023447 -0.007009 -0.003807
  4C   1px        0.033612  0.057065 -0.015181 -0.030363  0.026583  0.136456
  4C   1py       -0.008364 -0.009466 -0.025064  0.002632  0.007113 -0.008176
  5C   1s         0.025620 -0.061202  0.119527 -0.044118 -0.011870 -0.067019
  5C   2s        -0.066909  0.159695 -0.322654  0.121093  0.033039  0.186243
  5C   1pz        0.021237 -0.031788 -0.015686 -0.028815 -0.003229 -0.012725
  5C   1px        0.044830 -0.001043 -0.077285 -0.078647  0.005120  0.016405
  5C   1py        0.000604 -0.007873  0.000761 -0.002977  0.001510 -0.003873
  6C   1s        -0.035326 -0.018666  0.136880  0.050476 -0.001915  0.001792
  6C   2s         0.091823  0.047667 -0.370338 -0.135868  0.004986 -0.006989
  6C   1pz       -0.032582  0.011484 -0.013682  0.048117  0.008978  0.048843
  6C   1px        0.033218 -0.055686  0.052453 -0.037433 -0.015240 -0.095566
  6C   1py       -0.008555  0.005817 -0.006993  0.010279  0.002824  0.012803
  7C   1s        -0.081483  0.043740  0.013971  0.079474  0.014266  0.079807
  7C   2s         0.214285 -0.117612 -0.037928 -0.217402 -0.040474 -0.227741
  7C   1pz       -0.003267  0.009662 -0.128629  0.008882  0.005124 -0.001830
  7C   1px        0.018723 -0.077599 -0.004368  0.082918 -0.001394 -0.033553
  7C   1py       -0.000149  0.007388 -0.028344 -0.011086 -0.000804 -0.013452
  8C   1s        -0.036917 -0.015993 -0.117776  0.086501  0.006799  0.002980
  8C   2s         0.096124  0.040461  0.318883 -0.233803 -0.019367 -0.010714
  8C   1pz        0.026052 -0.001629 -0.017147 -0.036420 -0.005051 -0.029761
  8C   1px        0.039224 -0.058866 -0.068832 -0.022154 -0.014343 -0.086297
  8C   1py        0.003242  0.003832  0.000975 -0.009691 -0.000154 -0.005563
  9C   1s         0.023647 -0.060848 -0.129738 -0.004611 -0.008727 -0.053857
  9C   2s        -0.061846  0.158663  0.350564  0.014141  0.024224  0.149495
  9C   1pz       -0.028060  0.032222 -0.015016  0.049270  0.003168  0.011848
  9C   1px        0.039509  0.003564  0.050853 -0.089391 -0.004346  0.018646
  9C   1py       -0.009358  0.005356 -0.006249  0.013812  0.005172  0.001216
 10C   1s        -0.083956  0.121277 -0.004931 -0.066250  0.001950  0.028382
 10C   2s         0.230849 -0.336824  0.013702  0.187421 -0.006218 -0.087208
 10C   1pz        0.000130  0.005826 -0.021356 -0.015755 -0.003054 -0.027007
 10C   1px       -0.023251  0.001455  0.008730  0.065983  0.012954  0.073983
 10C   1py       -0.006237  0.018975 -0.011706 -0.041076 -0.011014 -0.078648
 11C   1s        -0.051535  0.093635 -0.019240 -0.105842 -0.016560 -0.105846
 11C   2s         0.138534 -0.255442  0.053965  0.297374  0.048012  0.308416
 11C   1pz        0.008324 -0.012729 -0.002957  0.007280 -0.000764 -0.009511
 11C   1px       -0.012204  0.014059 -0.002769  0.003022  0.003064  0.019344
 11C   1py        0.025792 -0.039173  0.002772  0.020540 -0.003094 -0.028968
 12C   1s        -0.012930  0.022697 -0.002715 -0.017138  0.001070  0.013174
 12C   2s         0.036460 -0.065321  0.008619  0.051254 -0.003233 -0.040116
 12C   1pz        0.032378 -0.052803  0.002433  0.037835 -0.001026 -0.019332
 12C   1px       -0.026322  0.041363 -0.006829 -0.024530  0.001800  0.017712
 12C   1py       -0.036858  0.055350 -0.006570 -0.034469  0.000629  0.012124
 13O   1s         0.016084 -0.018742  0.000894  0.003686 -0.001778 -0.014063
 13O   2s        -0.062808  0.073666 -0.003266 -0.014066  0.007434  0.058912
 13O   1pz        0.000341 -0.001770 -0.001689  0.001920 -0.000025 -0.001510
 13O   1px       -0.000442 -0.001658 -0.000182  0.005711 -0.000031 -0.003247
 13O   1py       -0.002240  0.006804 -0.001920 -0.006609  0.001273  0.012060
 14O   1s         0.013269 -0.022108  0.003118  0.017700  0.000479 -0.000541
 14O   2s        -0.048958  0.082828 -0.012105 -0.068469 -0.001993  0.001499
 14O   1pz       -0.000286 -0.000985 -0.000400  0.003265 -0.000034 -0.002531
 14O   1px        0.004454 -0.006217  0.000124  0.003496  0.000447  0.003084
 14O   1py       -0.009301  0.015762 -0.002568 -0.013839 -0.000863 -0.003398
 15H   1s        -0.038380 -0.042798 -0.003741 -0.045237  0.145335  0.030329
 16H   1s        -0.041207 -0.042921 -0.001804 -0.040289  0.142364  0.018821
 17H   1s        -0.041646 -0.037774  0.000705 -0.032892  0.154945  0.012382
 18H   1s        -0.069227 -0.059427 -0.008909 -0.028796  0.001182 -0.003411
 19H   1s        -0.040303 -0.046222 -0.006530 -0.048195 -0.109928  0.082721
 20H   1s        -0.037755 -0.045353 -0.007220 -0.052285 -0.104839  0.095576
 21H   1s        -0.038883 -0.044194 -0.006803 -0.044899 -0.125549  0.079788
 22H   1s        -0.063567 -0.021801  0.014850  0.049822 -0.033098 -0.110168
 23H   1s        -0.062515 -0.020693  0.000688  0.054121 -0.052835 -0.109799
 24H   1s        -0.018617  0.032610 -0.086645  0.037712  0.007356  0.049303
 25H   1s         0.022136  0.004325 -0.100207 -0.031914  0.001159 -0.008433
 26H   1s         0.023775  0.001105  0.088018 -0.056412 -0.006251 -0.003886
 27H   1s        -0.016957  0.032857  0.095086  0.008247  0.008159  0.036833
 28H   1s         0.051810 -0.080104 -0.006806  0.051523 -0.001471 -0.029454
 29H   1s         0.031114 -0.058287  0.017728  0.071970  0.013412  0.091402
 30H   1s         0.030285 -0.057851  0.012300  0.074321  0.014049  0.092757
 31H   1s         0.028018 -0.056738  0.013208  0.079203  0.015102  0.098356
 32H   1s        -0.003287  0.008327 -0.003410 -0.012031 -0.000277  0.000509
                     24        25        26        27        28        29   
                  -0.59483  -0.56108  -0.53636  -0.51660  -0.49458  -0.45718
                   2.00000   2.00000   2.00000   2.00000   2.00000   2.00000
                  --------  --------  --------  --------  --------  --------
  0C   1s        -0.023566  0.003676 -0.041714  0.054590 -0.002503 -0.002220
  0C   2s         0.069674 -0.011453  0.128624 -0.170954  0.007758  0.007745
  0C   1pz       -0.014085  0.016342 -0.074276  0.142573 -0.006615 -0.028314
  0C   1px       -0.003300 -0.000508  0.004356 -0.001566  0.002012 -0.022982
  0C   1py        0.018855  0.003026  0.044667 -0.049897  0.006252 -0.024903
  1C   1s         0.025435 -0.017314  0.083963 -0.120492  0.005627 -0.000840
  1C   2s        -0.077053  0.053700 -0.264623  0.386248 -0.018522  0.002991
  1C   1pz       -0.009478  0.025368 -0.053375  0.106796  0.003457 -0.048687
  1C   1px       -0.036164  0.019513 -0.041320  0.067155  0.001067 -0.041814
  1C   1py        0.055262  0.009651  0.018007  0.074729  0.001208 -0.068072
  2C   1s        -0.045486  0.010804 -0.050065  0.044515 -0.002124  0.006677
  2C   2s         0.135034 -0.032946  0.154585 -0.139302  0.006645 -0.021163
  2C   1pz        0.001962  0.004153  0.000578  0.014401  0.002698 -0.032932
  2C   1px       -0.031613  0.016743 -0.099473  0.134668 -0.007470  0.019143
  2C   1py        0.016753  0.003096  0.012162  0.027532  0.000805 -0.047042
  3C   1s         0.065642  0.013063  0.003358  0.070598  0.001015 -0.022954
  3C   2s        -0.195790 -0.040013 -0.008939 -0.221437 -0.004301  0.077289
  3C   1pz       -0.015016  0.066297 -0.023483  0.036979  0.014564 -0.023295
  3C   1px        0.051120  0.012588  0.091972  0.046998  0.004300 -0.135377
  3C   1py       -0.007027  0.027779 -0.078717  0.149666 -0.004616 -0.009824
  4C   1s        -0.055945 -0.002546 -0.087465 -0.044402  0.013688  0.025152
  4C   2s         0.161686  0.007611  0.261714  0.133252 -0.040423 -0.086501
  4C   1pz       -0.032174  0.214036  0.023463 -0.025194  0.037617 -0.032575
  4C   1px        0.066642  0.035554 -0.002060  0.104512 -0.027557  0.114411
  4C   1py       -0.011001  0.046311 -0.008758  0.021684  0.009154 -0.015840
  5C   1s        -0.015558 -0.100224  0.030101  0.022834 -0.028185  0.006787
  5C   2s         0.045959  0.294718 -0.091025 -0.071706  0.090868 -0.030125
  5C   1pz       -0.035325  0.016267 -0.127748 -0.116019  0.084987 -0.126779
  5C   1px       -0.056970 -0.129372 -0.123690 -0.061083 -0.042807  0.145640
  5C   1py       -0.003896  0.011816 -0.025110 -0.007985  0.021984 -0.030402
  6C   1s         0.039035  0.097334  0.051609  0.027205  0.016040 -0.009963
  6C   2s        -0.113032 -0.286894 -0.155979 -0.085545 -0.047362  0.024189
  6C   1pz        0.015137  0.009051 -0.150410 -0.110298  0.080727 -0.105297
  6C   1px        0.000054 -0.138100  0.064704  0.041185  0.008290 -0.153582
  6C   1py        0.007247  0.009996 -0.037264 -0.022482  0.022869  0.007198
  7C   1s         0.022982  0.002709 -0.087597 -0.036795  0.019177  0.030161
  7C   2s        -0.065408 -0.007086  0.263994  0.111419 -0.055279 -0.104029
  7C   1pz        0.014168 -0.221995 -0.027299  0.036776 -0.011399 -0.019881
  7C   1px        0.123916 -0.008377 -0.014094 -0.003027  0.111545 -0.196707
  7C   1py        0.018711 -0.039121 -0.011550  0.006533 -0.003003  0.062407
  8C   1s         0.055621 -0.089654  0.032087  0.041868 -0.011355 -0.004720
  8C   2s        -0.160190  0.264149 -0.097071 -0.130444  0.038625  0.006832
  8C   1pz       -0.014001 -0.020425  0.133555  0.101570 -0.097131  0.136399
  8C   1px       -0.044999  0.127454  0.139804 -0.002442 -0.021321 -0.081321
  8C   1py        0.005843 -0.007783  0.017704  0.022327 -0.013804  0.055616
  9C   1s        -0.043775  0.091508  0.057559 -0.007906 -0.013569  0.010431
  9C   2s         0.126892 -0.268958 -0.173324  0.022110  0.045019 -0.041587
  9C   1pz        0.043260 -0.001231  0.152287  0.109315 -0.087535  0.115869
  9C   1px       -0.069729  0.123620 -0.077027 -0.033916  0.004959  0.122344
  9C   1py        0.014238 -0.005935  0.034150  0.031817 -0.016787  0.023391
 10C   1s        -0.107540 -0.010241  0.024399 -0.001806 -0.046816  0.000294
 10C   2s         0.331315  0.033533 -0.077448  0.005840  0.148105  0.000331
 10C   1pz        0.025939 -0.075436  0.011608  0.036379  0.104614 -0.113401
 10C   1px        0.024317 -0.004991 -0.114415 -0.039313 -0.016525  0.209465
 10C   1py        0.138318  0.023860 -0.053161 -0.021805 -0.046754  0.094366
[...]
  0-1A  -> 28-1A    9.596486   77400.9   129.2   0.025008172   0.10637  -0.28902   0.09204  -0.11985
  0-1A  -> 29-1A    9.765193   78761.6   127.0   0.023895308   0.09988   0.01269  -0.09328  -0.30169
  0-1A  -> 30-1A    9.843261   79391.3   126.0   0.005189646   0.02152   0.10454   0.01442  -0.10189

----------------------------------------------------------------------------------------------------
                     ABSORPTION SPECTRUM VIA TRANSITION VELOCITY DIPOLE MOMENTS    
----------------------------------------------------------------------------------------------------
     Transition      Energy     Energy  Wavelength fosc(P2)      P2        PX        PY        PZ   
                      (eV)      (cm-1)    (nm)                 (au**2)    (au)      (au)      (au)  
----------------------------------------------------------------------------------------------------
  0-1A  ->  1-1A    4.832408   38976.0   256.6   0.000303998   0.00008  -0.00744  -0.00227   0.00452
  0-1A  ->  2-1A    5.540635   44688.2   223.8   0.011977437   0.00366  -0.05939  -0.00224   0.01123
  0-1A  ->  3-1A    5.695689   45938.8   217.7   0.001287062   0.00040  -0.01858  -0.00605  -0.00471
  0-1A  ->  4-1A    6.242933   50352.7   198.6   0.000090295   0.00003   0.00212   0.00209  -0.00471
  0-1A  ->  5-1A    6.306100   50862.1   196.6   0.000384307   0.00013  -0.01100   0.00158  -0.00316
  0-1A  ->  6-1A    6.648406   53623.0   186.5   0.000103928   0.00004  -0.00417   0.00454   0.00026
  0-1A  ->  7-1A    7.180073   57911.2   172.7   0.001278586   0.00051   0.02237   0.00227   0.00057
  0-1A  ->  8-1A    7.458354   60155.7   166.2   0.068463261   0.02815  -0.15792   0.05104   0.02460
  0-1A  ->  9-1A    7.541732   60828.2   164.4   0.023373076   0.00972   0.09220  -0.03168  -0.01455
  0-1A  -> 10-1A    8.326912   67161.1   148.9   0.012323556   0.00566  -0.05498   0.05129  -0.00180
  0-1A  -> 11-1A    8.380459   67593.0   147.9   0.026135714   0.01207  -0.02580   0.09733   0.04399
  0-1A  -> 12-1A    8.454999   68194.2   146.6   0.004625350   0.00216   0.03861  -0.02384   0.00984
  0-1A  -> 13-1A    8.497384   68536.0   145.9   0.008303626   0.00389   0.02103  -0.00827   0.05813
  0-1A  -> 14-1A    8.539621   68876.7   145.2   0.001271162   0.00060   0.01971  -0.01022   0.01027
  0-1A  -> 15-1A    8.603993   69395.9   144.1   0.016926334   0.00803   0.08698  -0.00526   0.02086
  0-1A  -> 16-1A    8.726000   70379.9   142.1   0.146239492   0.07034   0.25612  -0.06116  -0.03170
  0-1A  -> 17-1A    8.786740   70869.8   141.1   0.009370839   0.00454   0.05376  -0.01844  -0.03618
  0-1A  -> 18-1A    8.827712   71200.3   140.4   0.003524232   0.00171   0.00688   0.01560   0.03774
  0-1A  -> 19-1A    8.917670   71925.9   139.0   0.000880697   0.00043  -0.00399  -0.01049  -0.01752
  0-1A  -> 20-1A    9.072203   73172.3   136.7   0.004108265   0.00205  -0.04314  -0.00019   0.01390
  0-1A  -> 21-1A    9.128149   73623.5   135.8   0.000079492   0.00004  -0.00424   0.00412  -0.00223
  0-1A  -> 22-1A    9.182849   74064.7   135.0   0.030108255   0.01524  -0.12127   0.00634   0.02225
  0-1A  -> 23-1A    9.366819   75548.5   132.4   0.000394730   0.00020  -0.00114   0.00945   0.01064
  0-1A  -> 24-1A    9.390540   75739.8   132.0   0.003598283   0.00186  -0.00776  -0.00973  -0.04133
  0-1A  -> 25-1A    9.444959   76178.7   131.3   0.002278839   0.00119  -0.00036   0.01699   0.02996
  0-1A  -> 26-1A    9.446651   76192.4   131.2   0.001956796   0.00102  -0.00304  -0.02138  -0.02351
  0-1A  -> 27-1A    9.488079   76526.5   130.7   0.008170682   0.00427  -0.05222  -0.02980   0.02566
  0-1A  -> 28-1A    9.596486   77400.9   129.2   0.006406356   0.00339   0.04686  -0.03272   0.01105
  0-1A  -> 29-1A    9.765193   78761.6   127.0   0.001310793   0.00071  -0.01232  -0.00084   0.02352
  0-1A  -> 30-1A    9.843261   79391.3   126.0   0.001498819   0.00081  -0.00720  -0.00662  -0.02679

------------------------------------------------------------------------------------------
                     CD SPECTRUM VIA TRANSITION ELECTRIC DIPOLE MOMENTS    
------------------------------------------------------------------------------------------
     Transition      Energy     Energy  Wavelength    R        MX        MY        MZ   
                      (eV)      (cm-1)    (nm)   (1e40*cgs)   (au)      (au)      (au)  
------------------------------------------------------------------------------------------
  0-1A  ->  1-1A    4.832408   38976.0   256.6  -21.24428   0.40200  -0.09644  -0.29932
  0-1A  ->  2-1A    5.540635   44688.2   223.8   18.18646  -0.06740  -0.06917  -0.13252
  0-1A  ->  3-1A    5.695689   45938.8   217.7   -0.68188  -0.04760   0.01462  -0.05326
  0-1A  ->  4-1A    6.242933   50352.7   198.6   -0.62785   0.00455  -0.04652   0.02713
  0-1A  ->  5-1A    6.306100   50862.1   196.6    0.18883  -0.00127  -0.03456   0.01580
  0-1A  ->  6-1A    6.648406   53623.0   186.5    0.04549   0.00341   0.00433   0.00966
  0-1A  ->  7-1A    7.180073   57911.2   172.7    3.44447   0.05639   0.00838   0.05003
  0-1A  ->  8-1A    7.458354   60155.7   166.2   -5.64618  -0.02627  -0.10052  -0.16966
  0-1A  ->  9-1A    7.541732   60828.2   164.4    7.06511   0.03345   0.05807   0.08886
  0-1A  -> 10-1A    8.326912   67161.1   148.9    8.29251  -0.05079  -0.02184  -0.14544
  0-1A  -> 11-1A    8.380459   67593.0   147.9   63.03656   0.13071  -0.26644   0.17871
  0-1A  -> 12-1A    8.454999   68194.2   146.6    9.66702   0.04171  -0.12208  -0.03576
  0-1A  -> 13-1A    8.497384   68536.0   145.9  -92.37176   0.14792  -0.45677  -0.18084
  0-1A  -> 14-1A    8.539621   68876.7   145.2   -9.17657   0.12512  -0.17147   0.00914
  0-1A  -> 15-1A    8.603993   69395.9   144.1   51.56228   0.26658  -0.14664   0.18971
  0-1A  -> 16-1A    8.726000   70379.9   142.1  -13.43188   0.01684   0.14528   0.23026
  0-1A  -> 17-1A    8.786740   70869.8   141.1  -19.97070   0.03042   0.07191   0.04829
  0-1A  -> 18-1A    8.827712   71200.3   140.4   20.26369  -0.08005  -0.00556   0.04017
  0-1A  -> 19-1A    8.917670   71925.9   139.0    0.89295  -0.04168   0.10063  -0.05689
  0-1A  -> 20-1A    9.072203   73172.3   136.7  -54.04617   0.12679  -0.07357  -0.21423
  0-1A  -> 21-1A    9.128149   73623.5   135.8   -1.02867   0.14530   0.10396   0.39447
  0-1A  -> 22-1A    9.182849   74064.7   135.0    5.42746  -0.01594  -0.13433   0.16606
  0-1A  -> 23-1A    9.366819   75548.5   132.4   11.73619  -0.03432  -0.40936   0.00242
  0-1A  -> 24-1A    9.390540   75739.8   132.0   20.68396   0.12241   0.44333  -0.23942
  0-1A  -> 25-1A    9.444959   76178.7   131.3    7.61841   0.13411  -0.18783   0.09909
  0-1A  -> 26-1A    9.446651   76192.4   131.2  -21.16348   0.02772  -0.03094   0.08167
  0-1A  -> 27-1A    9.488079   76526.5   130.7    7.06355  -0.05733   0.08713  -0.02640
  0-1A  -> 28-1A    9.596486   77400.9   129.2   23.02815   0.07950  -0.14138   0.10726
  0-1A  -> 29-1A    9.765193   78761.6   127.0  -26.99941  -0.00812  -0.10012  -0.15921
  0-1A  -> 30-1A    9.843261   79391.3   126.0   -9.38940   0.09576   0.30010  -0.05474

------------------------------------------------------------------------------------------
                     CD SPECTRUM VIA TRANSITION VELOCITY DIPOLE MOMENTS    
------------------------------------------------------------------------------------------
     Transition      Energy     Energy  Wavelength    R        MX        MY        MZ   
                      (eV)      (cm-1)    (nm)   (1e40*cgs)   (au)      (au)      (au)  
------------------------------------------------------------------------------------------
  0-1A  ->  1-1A    4.832408   38976.0   256.6  -10.95142   0.40200  -0.09644  -0.29932
  0-1A  ->  2-1A    5.540635   44688.2   223.8    6.18066  -0.06740  -0.06917  -0.13252
  0-1A  ->  3-1A    5.695689   45938.8   217.7    2.35814  -0.04760   0.01462  -0.05326
  0-1A  ->  4-1A    6.242933   50352.7   198.6   -0.44272   0.00455  -0.04652   0.02713
  0-1A  ->  5-1A    6.306100   50862.1   196.6   -0.18441  -0.00127  -0.03456   0.01580
  0-1A  ->  6-1A    6.648406   53623.0   186.5    0.01537   0.00341   0.00433   0.00966
  0-1A  ->  7-1A    7.180073   57911.2   172.7    2.33881   0.05639   0.00838   0.05003
  0-1A  ->  8-1A    7.458354   60155.7   166.2   -8.86539  -0.02627  -0.10052  -0.16966
  0-1A  ->  9-1A    7.541732   60828.2   164.4   -0.08333   0.03345   0.05807   0.08886
  0-1A  -> 10-1A    8.326912   67161.1   148.9    2.97863  -0.05079  -0.02184  -0.14544
  0-1A  -> 11-1A    8.380459   67593.0   147.9  -32.82479   0.13071  -0.26644   0.17871
  0-1A  -> 12-1A    8.454999   68194.2   146.6    6.32544   0.04171  -0.12208  -0.03576
  0-1A  -> 13-1A    8.497384   68536.0   145.9   -5.46912   0.14792  -0.45677  -0.18084
  0-1A  -> 14-1A    8.539621   68876.7   145.2    6.47883   0.12512  -0.17147   0.00914
  0-1A  -> 15-1A    8.603993   69395.9   144.1   41.62336   0.26658  -0.14664   0.18971
  0-1A  -> 16-1A    8.726000   70379.9   142.1  -17.45127   0.01684   0.14528   0.23026
  0-1A  -> 17-1A    8.786740   70869.8   141.1   -2.09999   0.03042   0.07191   0.04829
  0-1A  -> 18-1A    8.827712   71200.3   140.4    1.27671  -0.08005  -0.00556   0.04017
  0-1A  -> 19-1A    8.917670   71925.9   139.0    0.15490  -0.04168   0.10063  -0.05689
  0-1A  -> 20-1A    9.072203   73172.3   136.7  -11.92708   0.12679  -0.07357  -0.21423
  0-1A  -> 21-1A    9.128149   73623.5   135.8   -1.50266   0.14530   0.10396   0.39447
  0-1A  -> 22-1A    9.182849   74064.7   135.0    6.67083  -0.01594  -0.13433   0.16606
  0-1A  -> 23-1A    9.366819   75548.5   132.4   -5.21145  -0.03432  -0.40936   0.00242
  0-1A  -> 24-1A    9.390540   75739.8   132.0    6.32825   0.12241   0.44333  -0.23942
  0-1A  -> 25-1A    9.444959   76178.7   131.3   -0.36720   0.13411  -0.18783   0.09909
  0-1A  -> 26-1A    9.446651   76192.4   131.2   -1.82334   0.02772  -0.03094   0.08167
  0-1A  -> 27-1A    9.488079   76526.5   130.7   -0.37838  -0.05733   0.08713  -0.02640
  0-1A  -> 28-1A    9.596486   77400.9   129.2   12.74934   0.07950  -0.14138   0.10726
  0-1A  -> 29-1A    9.765193   78761.6   127.0   -4.67682  -0.00812  -0.10012  -0.15921
  0-1A  -> 30-1A    9.843261   79391.3   126.0   -1.57469   0.09576   0.30010  -0.05474

Total run time:       40.572 sec

           *** ORCA-CIS/TD-DFT FINISHED WITHOUT ERROR ***
-----------------------
CIS/TD-DFT TOTAL ENERGY
-----------------------

    E(SCF)  =   -648.077084739 Eh
    DE(CIS) =      0.177587749 Eh (Root  1)
    ----------------------------- ---------
    E(tot)  =   -647.899496989 Eh


Maximum memory used throughout the entire CIS-calculation: 82.3 MB
=> NOW LEAVING ORCA_CIS

-------------------------   --------------------
FINAL SINGLE POINT ENERGY      -647.899496989458
-------------------------   --------------------


------------------------------------------------------------------------------
                              ORCA PROPERTY CALCULATIONS
------------------------------------------------------------------------------

GBWName                                 ... Ibuprofen\Ibuprofen_B3LYP_STO-3G\Ibuprofen_B3LYP_STO-3G.orcainp.gbw
Number of atoms                         ...     33
Number of basis functions               ...     93
Max core memory                         ...   1024 MB

Electric properties:
Dipole moment                           ... YES
Quadrupole moment                       ...  NO
Static polarizability (Dipole/Dipole)   ...  NO
Static polarizability (Dipole/Quad.)    ...  NO
Static polarizability (Quad./Quad.)     ...  NO
Static polarizability (Velocity)        ...  NO

Atomic electric properties:
Dipole moment                           ...  NO
Quadrupole moment                       ...  NO
Static polarizability                   ...  NO

Choice of electric origin               ... Center of mass
Position of electric origin             ...    11.511918    -2.004665    -0.934534

General magnetic properties:
Magnetizability                         ...  NO

EPR properties:
g-Tensor (aka g-matrix)                 ...  NO
Zero-Field splitting spin-orbit         ...  NO
Zero-field splitting spin-spin          ...  NO
Hyperfine couplings                     ...  NO (   0 nuclei)
Quadrupole couplings                    ...  NO (   0 nuclei)
Contact density                         ...  NO (   0 nuclei)

NMR properties:
Chemical shifts                         ...  NO (   0 nuclei)
Spin-rotation constants                 ...  NO (   0 nuclei)
Spin-spin couplings                     ...  NO (   0 nuclei,    0 pairs)

Choice of magnetic origin               ... GIAO
Position of magnetic origin             ...     0.000000     0.000000     0.000000

Properties with geometric perturbations:
SCF Hessian                             ...  NO
IR spectrum                             ...  NO
VCD spectrum                            ...  NO
X-ray spectroscopy properties:
SCF XES/XAS/RIXS spectra                ...  NO


-------------
DIPOLE MOMENT
-------------

Method             : SCF
Type of density    : Electron Density
Multiplicity       :   1
Irrep              :   0
Energy             :  -648.0770847386615969 Eh
Relativity type    : 
Basis              : AO
                                X                 Y                 Z
Electronic contribution:     19.957965875      -0.941985977      -3.360528715
Nuclear contribution   :    -21.212591747       0.676415723       4.279740730
                        -----------------------------------------
Total Dipole Moment    :     -1.254625871      -0.265570254       0.919212015
                        -----------------------------------------
Magnitude (a.u.)       :      1.577835341
Magnitude (Debye)      :      4.010538714



--------------------
Rotational spectrum 
--------------------
 
Rotational constants in cm-1:             0.046362             0.008343             0.007816 
Rotational constants in MHz :          1389.908875           250.122311           234.328709 

Dipole components along the rotational axes: 
x,y,z [a.u.] :     1.342881     0.733288    -0.385387 
x,y,z [Debye]:     3.413333     1.863869    -0.979577 

 

Dipole moment calculation done in   0.0 sec 

Maximum memory used throughout the entire PROP-calculation: 7.2 MB

--------------------------------
SUGGESTED CITATIONS FOR THIS RUN
--------------------------------

Below you find a list of papers that are relevant to this ORCA run
We neither can nor want to force you to cite these papers, but we appreciate if you do
You receive ORCA, which is the product of decades of hard work by many enthusiastic individuals, for free
The only thing we kindly ask in return is that you cite our papers,
We deeply appreciate it, if you show your appreciation for ORCA by not just citing the generic ORCA reference.

Please note that relegating all ORCA citations to the supporting information does *not* help us.
SI sections are not indexed - citations you put there will not count into any citation statistics
But we need these citations in order to attract the funding resources that allow us to do what we are doing

Therefore, if you are a happy ORCA user, please consider citing a few of the papers listed below in the main body of your paper

In addition to the list printed below, the program has created the file Ibuprofen\Ibuprofen_B3LYP_STO-3G\Ibuprofen_B3LYP_STO-3G.orcainp.bibtex that contains the list in bibtex format
You can import this file easily into all common literature databanks and citation aid programs


List of essential papers. We consider these as the minimum necessary citations

  1. Neese,F.
     Software update: the ORCA program system, version 5.0
     WIRES Comput. Molec. Sci., 2022 12(1)e1606
     doi.org/10.1002/wcms.1606

List of papers to cite with high priority. The work reported in these papers was absolutely
necessary for this run to complete.
Our perspective: the developers of density functionals and basis sets usually get cited in chemistry papers
Good! But without the algorithms to do something with them, the functionals or basis sets would not do anything.
Hence, in our opinion, the algorithm design and method developments papers are equally worthy of getting cited

  1. Neese,F.; Olbrich,G.
     Efficient use of the resolution of the identity approximation in time-dependent density functional calculations with hybrid density functionals
     Chem. Phys. Lett., 2002 362 170-178
     doi.org/10.1016/s0009-2614(02)01053-9
  2. Neese,F.
     An improvement of the resolution of the identity approximation for the formation of the Coulomb matrix
     J. Comp. Chem., 2003 24(14)1740-1747
     doi.org/10.1002/jcc.10318
  3. Neese,F.; Wennmohs,F.; Hansen,A.; Becker,U.
     Efficient, approximate and parallel Hartree-Fock and hybrid DFT calculations. A 'chain-of-spheres' algorithm for the Hartree-Fock exchange
     Chem. Phys., 2009 356(1-3)98-109
     doi.org/10.1016/j.chemphys.2008.10.036
  4. Garcia-Rates,M.; Neese,F.
     Effect of the Solute Cavity on the Solvation Energy and its Derivatives within the Framework of the Gaussian Charge Scheme
     J. Comput. Chem., 2020 41 922-939
     doi.org/10.1002/jcc.26139
  5. Helmich-Paris,B.; de Souza,B.; Neese,F.; Izsák,R.
     An improved chain of spheres for exchange algorithm
     J. Chem. Phys., 2021 155 104109
     doi.org/doi: 10.1063/5.0058766.
  6. Neese,F.
     The SHARK Integral Generation and Digestion System
     J. Comp. Chem., 2022  1-16
     doi.org/10.1002/jcc.26942

List of suggested additional citations. These are papers that are important in the 'surrounding' of 
of this run, or papers that preceded the highly important papers. If you like your results we are grateful for a citation.

  1. Izsak,R.; Neese,F.
     An overlap fitted chain of spheres exchange method
     J. Chem. Phys., 2011 135 144105
     doi.org/10.1063/1.3646921
  2. Izsak,R.; Hansen,A.; Neese,F.
     The resolution of identity and chain of spheres approximations for the LPNO-CCSD singles Fock term
     Molec. Phys., 2012 110 2413-2417
     doi.org/10.1080/00268976.2012.687466
  3. Neese,F.
     The ORCA program system
     WIRES Comput. Molec. Sci., 2012 2(1)73-78
     doi.org/10.1002/wcms.81
  4. Izsak,R.; Neese,F.; Klopper,W.
     Robust fitting techniques in the chain of spheres approximation to the Fock exchange: The role of the complementary space
     J. Chem. Phys., 2013 139 
     doi.org/10.1063/1.4819264
  5. Neese,F.
     Software update: the ORCA program system, version 4.0
     WIRES Comput. Molec. Sci., 2018 8(1)1-6
     doi.org/10.1002/wcms.1327
  6. Neese,F.; Wennmohs,F.; Becker,U.; Riplinger,C.
     The ORCA quantum chemistry program package
     J. Chem. Phys., 2020 152 Art. No. L224108
     doi.org/10.1063/5.0004608

List of optional additional citations

  1. Neese,F.
     Approximate second-order SCF convergence for spin unrestricted wavefunctions
     Chem. Phys. Lett., 2000 325(1-3)93-98
     doi.org/10.1016/s0009-2614(00)00662-x

Timings for individual modules:

Sum of individual times          ...       52.100 sec (=   0.868 min)
Startup calculation              ...        1.559 sec (=   0.026 min)   3.0 %
SCF iterations                   ...        9.623 sec (=   0.160 min)  18.5 %
Property integrals               ...        0.127 sec (=   0.002 min)   0.2 %
Property calculations            ...        0.111 sec (=   0.002 min)   0.2 %
CIS module                       ...       40.680 sec (=   0.678 min)  78.1 %
                             ****ORCA TERMINATED NORMALLY****
TOTAL RUN TIME: 0 days 0 hours 0 minutes 52 seconds 318 msec
