
                                 *****************
                                 * O   R   C   A *
                                 *****************

                                            #,                                       
                                            ###                                      
                                            ####                                     
                                            #####                                    
                                            ######                                   
                                           ########,                                 
                                     ,,################,,,,,                         
                               ,,#################################,,                 
                          ,,##########################################,,             
                       ,#########################################, ''#####,          
                    ,#############################################,,   '####,        
                  ,##################################################,,,,####,       
                ,###########''''           ''''###############################       
              ,#####''   ,,,,##########,,,,          '''####'''          '####       
            ,##' ,,,,###########################,,,                        '##       
           ' ,,###''''                  '''############,,,                           
         ,,##''                                '''############,,,,        ,,,,,,###''
      ,#''                                            '''#######################'''  
     '                                                          ''''####''''         
             ,#######,   #######,   ,#######,      ##                                
            ,#'     '#,  ##    ##  ,#'     '#,    #''#        ,####,   ,####,        
            ##       ##  ##   ,#'  ##            #'  '#       #'       #'  '#        
            ##       ##  #######   ##           ,######,      #####,   #    #        
            '#,     ,#'  ##    ##  '#,     ,#' ,#      #,     #,   #   #,  ,#        
             '#######'   ##     ##  '#######'  #'      '#     '####' # '####'        



                #########################################################
                #                        -***-                          #
                #          Department of theory and spectroscopy        #
                #                                                       #
                #                      Frank Neese                      #
                #                                                       #
                #     Directorship, Architecture, Infrastructure        #
                #                    SHARK, DRIVERS                     #
                #        Core code/Algorithms in most modules           #
                #                                                       #
                #        Max Planck Institute fuer Kohlenforschung      #
                #                Kaiser Wilhelm Platz 1                 #
                #                 D-45470 Muelheim/Ruhr                 #
                #                      Germany                          #
                #                                                       #
                #                  All rights reserved                  #
                #                        -***-                          #
                #########################################################


                         Program Version 6.0.0  -   RELEASE   -


 With contributions from (in alphabetic order):
   Daniel Aravena         : Magnetic Suceptibility
   Michael Atanasov       : Ab Initio Ligand Field Theory (pilot matlab implementation)
   Alexander A. Auer      : GIAO ZORA, VPT2 properties, NMR spectrum
   Ute Becker             : All parallelization in ORCA, NUMFREQ, NUMCALC
   Giovanni Bistoni       : ED, misc. LED, open-shell LED, HFLD
   Martin Brehm           : Molecular dynamics
   Dmytro Bykov           : pre 5.0 version of the SCF Hessian
   Marcos Casanova-Páez   : Triplet and SCS-CIS(D). UHF-(DLPNO)-IP/EA/STEOM-CCSD. UHF-CVS-IP/STEOM-CCSD
   Vijay G. Chilkuri      : MRCI spin determinant printing, contributions to CSF-ICE
   Pauline Colinet        : FMM embedding
   Dipayan Datta          : RHF DLPNO-CCSD density
   Achintya Kumar Dutta   : EOM-CC, STEOM-CC
   Nicolas Foglia         : Exact transition moments, OPA infrastructure, MCD improvements
   Dmitry Ganyushin       : Spin-Orbit,Spin-Spin,Magnetic field MRCI
   Miquel Garcia          : C-PCM and meta-GGA Hessian, CCSD/C-PCM, Gaussian charge scheme
   Tiago L. C. Gouveia    : GS-ROHF, GS-ROCIS
   Yang Guo               : DLPNO-NEVPT2, F12-NEVPT2, CIM, IAO-localization
   Andreas Hansen         : Spin unrestricted coupled pair/coupled cluster methods
   Ingolf Harden          : AUTO-CI MPn and infrastructure 
   Benjamin Helmich-Paris : MC-RPA, TRAH-(SCF,CASSCF), AVAS, COSX integrals, SCF dyn. polar.
   Lee Huntington         : MR-EOM, pCC
   Robert Izsak           : Overlap fitted RIJCOSX, COSX-SCS-MP3, EOM
   Riya Kayal             : Wick's Theorem for AUTO-CI, AUTO-CI UHF-CCSDT
   Emily Kempfer          : AUTO-CI, RHF CISDT and CCSDT
   Christian Kollmar      : KDIIS, OOCD, Brueckner-CCSD(T), CCSD density, CASPT2, CASPT2-K, improved NEVPT2
   Axel Koslowski         : Symmetry handling
   Simone Kossmann        : Meta GGA functionals, TD-DFT gradient, OOMP2, (MP2 Hessian; deprecated post 5.0)
   Lucas Lang             : DCDCAS
   Marvin Lechner         : AUTO-CI (C++ implementation), FIC-MRCC
   Spencer Leger          : CASSCF response
   Dagmar Lenk            : GEPOL surface, SMD, ORCA-2-JSON
   Dimitrios Liakos       : Extrapolation schemes; Compound Job, initial MDCI parallelization
   Dimitrios Manganas     : Further ROCIS development; embedding schemes. LFT, Crystal Embedding
   Dimitrios Pantazis     : SARC Basis sets
   Anastasios Papadopoulos: AUTO-CI, single reference methods and gradients
   Taras Petrenko         : pre 6.0 DFT Hessian and TD-DFT gradient, (ASA, deprecated), ECA, 1-Electron XAS/XES, NRVS
   Peter Pinski           : DLPNO-MP2, DLPNO-MP2 Gradient
   Christoph Reimann      : Effective Core Potentials
   Marius Retegan         : Local ZFS, SOC
   Christoph Riplinger    : Optimizer, TS searches, QM/MM, DLPNO-CCSD(T), (RO)-DLPNO pert. Triples
   Michael Roemelt        : Original ROCIS implementation
   Masaaki Saitow         : Open-shell DLPNO-CCSD energy and density
   Barbara Sandhoefer     : DKH picture change effects
   Kantharuban Sivalingam : CASSCF convergence/infrastructure, NEVPT2 and variants, FIC-MRCI
   Bernardo de Souza      : ESD, SOC TD-DFT
   Georgi Stoychev        : AutoAux, RI-MP2 NMR, DLPNO-MP2 response, X2C
   Van Anh Tran           : RI-MP2 g-tensors
   Willem Van den Heuvel  : Paramagnetic NMR
   Zikuan Wang            : NOTCH, Electric field optimization 
   Frank Wennmohs         : Technical directorship and infrastructure
   Hang Xu                : AUTO-CI-Response properties 


 We gratefully acknowledge several colleagues who have allowed us to
 interface, adapt or use parts of their codes:
   Stefan Grimme, W. Hujo, H. Kruse, P. Pracht,  : VdW corrections, initial TS optimization,
                  C. Bannwarth, S. Ehlert,         DFT functionals, gCP, sTDA/sTD-DF
                  L. Wittmann, M. Mueller
   Ed Valeev, F. Pavosevic, A. Kumar             : LibInt (2-el integral package), F12 methods
   Garnet Chan, S. Sharma, J. Yang, R. Olivares  : DMRG
   Ulf Ekstrom                                   : XCFun DFT Library
   Mihaly Kallay                                 : mrcc  (arbitrary order and MRCC methods)
   Frank Weinhold                                : gennbo (NPA and NBO analysis)
   Simon Mueller                                 : openCOSMO-RS
   Christopher J. Cramer and Donald G. Truhlar   : smd solvation model
   Lars Goerigk                                  : TD-DFT with DH, B97 family of functionals
   V. Asgeirsson, H. Jonsson                     : NEB implementation
   FAccTs GmbH                                   : IRC, NEB, NEB-TS, DLPNO-Multilevel, CI-OPT
                                                   MM, QMMM, 2- and 3-layer-ONIOM, Crystal-QMMM,
                                                   LR-CPCM, SF, NACMEs, symmetry and pop. for TD-DFT,
                                                   nearIR, NL-DFT gradient (VV10), updates on ESD,
                                                   ML-optimized integration grids, MBIS, APM,
                                                   GOAT, DOCKER, SOLVATOR, interface openCOSMO-RS
   S Lehtola, MJT Oliveira, MAL Marques          : LibXC Library
   Liviu Ungur et al                             : ANISO software


 Your calculation uses the libint2 library for the computation of 2-el integrals
 For citations please refer to: http://libint.valeyev.net

 Your ORCA version has been built with support for libXC version: 6.2.2
 For citations please refer to: https://libxc.gitlab.io

 This ORCA versions uses:
   CBLAS   interface :  Fast vector & matrix operations
   LAPACKE interface :  Fast linear algebra routines
   Shared memory     :  Shared parallel matrices


Warning: RI is on but no J-basis has been assigned. Assigning Def2/J (nothing to worry about!)
================================================================================

----- Orbital basis set information -----
Your calculation utilizes the basis: STO-3G
   H-Ne       : W. J. Hehre, R. F. Stewart and J. A. Pople, J. Chem. Phys. 2657 (1969).
   Na-Ar      : W. J. Hehre, R. Ditchfield, R. F. Stewart and J. A. Pople, J. Chem. Phys. 2769 (1970).
   K,Ca,Ga-Kr : W. J. Pietro, B. A. Levy, W. J. Hehre and R. F. Stewart, J. Am. Chem. Soc. 19, 2225 (1980).
   Sc-Zn,Y-Cd : W. J. Pietro and W. J. Hehre, J. Comp. Chem. 4, 241 (1983).

----- AuxJ basis set information -----
Your calculation utilizes the auxiliary basis: def2/J
   F. Weigend, Phys. Chem. Chem. Phys. 8, 1057 (2006).

================================================================================
                                        WARNINGS
                       Please study these warnings very carefully!
================================================================================


WARNING: Geometry Optimization
  ===> : Switching off AutoStart
         For restart on a previous wavefunction, please use MOREAD

================================================================================
                                       INPUT FILE
================================================================================
NAME = Ibuprofen\Ibuprofen_B3LYP_STO-3G\Ibuprofen_B3LYP_STO-3G.orcainp
|  1> # ORCA input file
|  2> # 
|  3> !B3LYP STO-3G Opt CPCM(WATER)
|  4> * xyz 0 1
|  5>    C        2.84251         1.01411        -0.69096
|  6>    C        2.43769        -0.00906         0.37461
|  7>    C        0.91575        -0.01278         0.53493
|  8>    C        2.94670        -1.42385         0.03470
|  9>    C        4.45251        -1.51309        -0.08791
| 10>    C        5.27723        -1.21555         1.00286
| 11>    C        6.66758        -1.27499         0.88204
| 12>    C        7.26810        -1.65638        -0.32751
| 13>    C        6.43770        -1.95835        -1.41751
| 14>    C        5.04670        -1.88539        -1.29902
| 15>    C        8.78387        -1.78842        -0.41169
| 16>    C        9.16418        -3.23508        -0.74382
| 17>    C        9.51321        -0.83979        -1.36214
| 18>    O        8.78146         0.15695        -1.90506
| 19>    O       10.71031        -0.94017        -1.60515
| 20>    H        2.47037         2.01046        -0.43077
| 21>    H        2.43869         0.74424        -1.67252
| 22>    H        3.93059         1.08959        -0.77972
| 23>    H        2.86857         0.31218         1.33176
| 24>    H        0.41895        -0.36301        -0.37626
| 25>    H        0.54619         0.99434         0.75501
| 26>    H        0.61306        -0.66604         1.36024
| 27>    H        2.47811        -1.76575        -0.89972
| 28>    H        2.62532        -2.13383         0.80693
| 29>    H        4.84079        -0.93717         1.96023
| 30>    H        7.27498        -1.03913         1.75499
| 31>    H        6.86200        -2.26456        -2.37291
| 32>    H        4.42920        -2.12815        -2.16163
| 33>    H        9.19524        -1.55445         0.58086
| 34>    H        8.80273        -3.53129        -1.73562
| 35>    H        8.74197        -3.93027        -0.01021
| 36>    H       10.25123        -3.36973        -0.74622
| 37>    H        7.84710         0.18033        -1.63398
| 38> *
| 39> 
| 40>                          ****END OF INPUT****
================================================================================

                       *****************************
                       * Geometry Optimization Run *
                       *****************************

Geometry optimization settings:
Update method            Update   .... BFGS
Choice of coordinates    CoordSys .... (2022) Redundant Internals
Initial Hessian          InHess   .... Almloef's Model
Max. no of cycles        MaxIter  .... 99

Convergence Tolerances:
Energy Change            TolE     ....  5.0000e-06 Eh
Max. Gradient            TolMAXG  ....  3.0000e-04 Eh/bohr
RMS Gradient             TolRMSG  ....  1.0000e-04 Eh/bohr
Max. Displacement        TolMAXD  ....  4.0000e-03 bohr
RMS Displacement         TolRMSD  ....  2.0000e-03 bohr
Strict Convergence                .... False

------------------------------------------------------------------------------
                        ORCA OPTIMIZATION COORDINATE SETUP
------------------------------------------------------------------------------

The optimization will be done in redundant internal coordinates (2022)
Making redundant internal coordinates   ...  (2022 redundants) done
Evaluating the initial hessian          ...  (Almloef) done
Evaluating the coordinates              ...  done
Calculating the B-matrix                .... done
Calculating the G-matrix                .... done
Diagonalizing the G-matrix              .... done
Small eigenvalue found = 1.016e-02
Small eigenvalue found = 1.828e-02
Small eigenvalue found = 2.477e-02
Small eigenvalue found = 2.537e-02
The first mode is                       ....   64
The number of degrees of freedom        ....   93

    -----------------------------------------------------------------
                    Redundant Internal Coordinates


    -----------------------------------------------------------------
         Definition                    Initial Value    Approx d2E/dq
    -----------------------------------------------------------------
      1. B(C   1,C   0)                  1.5317         0.371209   
      2. B(C   2,C   1)                  1.5304         0.373074   
      3. B(C   3,C   1)                  1.5415         0.358105   
      4. B(C   4,C   3)                  1.5134         0.397026   
      5. B(C   5,C   4)                  1.3995         0.603469   
      6. B(C   6,C   5)                  1.3969         0.609259   
      7. B(C   7,C   6)                  1.4032         0.595125   
      8. B(C   8,C   7)                  1.4032         0.595315   
      9. B(C   9,C   8)                  1.3979         0.606829   
     10. B(C   9,C   4)                  1.3994         0.603481   
     11. B(C  10,C   7)                  1.5238         0.382129   
     12. B(C  11,C  10)                  1.5322         0.370508   
     13. B(C  12,C  10)                  1.5281         0.376146   
     14. B(O  13,C  12)                  1.3504         0.647109   
     15. B(O  14,C  12)                  1.2256         1.023555   
     16. B(H  15,C   0)                  1.0949         0.353620   
     17. B(H  16,C   0)                  1.0952         0.353347   
     18. B(H  17,C   0)                  1.0943         0.354456   
     19. B(H  18,C   1)                  1.0977         0.350031   
     20. B(H  19,C   2)                  1.0953         0.353123   
     21. B(H  20,C   2)                  1.0951         0.353383   
     22. B(H  21,C   2)                  1.0952         0.353261   
     23. B(H  22,C   3)                  1.0998         0.347336   
     24. B(H  23,C   3)                  1.0971         0.350789   
     25. B(H  24,C   5)                  1.0884         0.362273   
     26. B(H  25,C   6)                  1.0893         0.361008   
     27. B(H  26,C   8)                  1.0893         0.361021   
     28. B(H  27,C   9)                  1.0883         0.362394   
     29. B(H  28,C  10)                  1.0996         0.347620   
     30. B(H  29,C  11)                  1.0964         0.351755   
     31. B(H  30,C  11)                  1.0953         0.353126   
     32. B(H  31,C  11)                  1.0954         0.353078   
     33. B(H  32,H  17)                  4.1104         0.000001   
     34. B(H  32,O  13)                  0.9732         0.495399   
     35. A(C   1,C   0,H  15)          110.6526         0.323017   
     36. A(H  15,C   0,H  17)          107.1245         0.289294   
     37. A(C   1,C   0,H  17)          111.4253         0.323142   
     38. A(H  16,C   0,H  17)          108.1157         0.289259   
     39. A(C   1,C   0,H  16)          111.1892         0.322976   
     40. A(H  15,C   0,H  16)          108.1733         0.289152   
     41. A(C   0,C   1,C   3)          111.8640         0.360347   
     42. A(C   2,C   1,H  18)          107.4413         0.322742   
     43. A(C   2,C   1,C   3)          110.4416         0.360655   
     44. A(C   3,C   1,H  18)          109.3441         0.320586   
     45. A(C   0,C   1,H  18)          107.9002         0.322477   
     46. A(C   0,C   1,C   2)          109.7146         0.362874   
     47. A(C   1,C   2,H  19)          111.3889         0.323208   
     48. A(H  20,C   2,H  21)          107.6878         0.289111   
     49. A(C   1,C   2,H  20)          110.7578         0.323247   
     50. A(H  19,C   2,H  21)          108.1076         0.289077   
     51. A(C   1,C   2,H  21)          110.8084         0.323229   
     52. A(H  19,C   2,H  20)          107.9492         0.289093   
     53. A(C   1,C   3,H  23)          109.9986         0.320699   
     54. A(C   4,C   3,H  22)          109.6792         0.325643   
     55. A(H  22,C   3,H  23)          105.7853         0.288014   
     56. A(C   1,C   3,C   4)          113.6108         0.364508   
     57. A(C   1,C   3,H  22)          109.3884         0.320181   
     58. A(C   4,C   3,H  23)          108.0784         0.326174   
     59. A(C   5,C   4,C   9)          118.7426         0.429872   
     60. A(C   3,C   4,C   5)          120.7083         0.399051   
     61. A(C   3,C   4,C   9)          120.5474         0.399052   
     62. A(C   4,C   5,C   6)          120.6710         0.430608   
     63. A(C   6,C   5,H  24)          119.0850         0.352225   
     64. A(C   4,C   5,H  24)          120.2436         0.351657   
     65. A(C   5,C   6,C   7)          120.8024         0.429533   
     66. A(C   7,C   6,H  25)          120.7293         0.350623   
     67. A(C   5,C   6,H  25)          118.4553         0.352017   
     68. A(C   8,C   7,C  10)          121.8107         0.395434   
     69. A(C   6,C   7,C  10)          119.7920         0.395412   
     70. A(C   6,C   7,C   8)          118.3476         0.427753   
     71. A(C   9,C   8,H  26)          118.4631         0.351781   
     72. A(C   7,C   8,C   9)          120.7834         0.429250   
     73. A(C   7,C   8,H  26)          120.7509         0.350645   
     74. A(C   4,C   9,C   8)          120.6450         0.430301   
     75. A(C   4,C   9,H  27)          120.2912         0.351678   
     76. A(C   8,C   9,H  27)          119.0629         0.352007   
     77. A(C   7,C  10,C  11)          109.9180         0.364247   
     78. A(C  12,C  10,H  28)          104.5235         0.322810   
     79. A(C  11,C  10,H  28)          107.6797         0.322013   
     80. A(C   7,C  10,H  28)          107.6876         0.323647   
     81. A(C  11,C  10,C  12)          109.4402         0.363265   
     82. A(C   7,C  10,C  12)          117.0853         0.365189   
     83. A(H  30,C  11,H  31)          107.8176         0.289054   
     84. A(H  29,C  11,H  31)          106.9766         0.288878   
     85. A(C  10,C  11,H  31)          111.2758         0.322836   
     86. A(H  29,C  11,H  30)          107.8981         0.288884   
     87. A(C  10,C  11,H  30)          111.0011         0.322843   
     88. A(C  10,C  11,H  29)          111.6747         0.322637   
     89. A(O  13,C  12,O  14)          120.6625         0.472893   
     90. A(C  10,C  12,O  14)          122.5912         0.431349   
     91. A(C  10,C  12,O  13)          116.7192         0.397601   
     92. A(C  12,O  13,H  32)          115.2135         0.369761   
     93. D(C   3,C   1,C   0,H  15)    179.9333         0.011011   
     94. D(C   2,C   1,C   0,H  15)     57.0081         0.011011   
     95. D(C   3,C   1,C   0,H  17)    -60.9928         0.011011   
     96. D(C   3,C   1,C   0,H  16)     59.6949         0.011011   
     97. D(C   2,C   1,C   0,H  16)    -63.2302         0.011011   
     98. D(C   2,C   1,C   0,H  17)    176.0820         0.011011   
     99. D(H  19,C   2,C   1,C   3)    -58.6057         0.011115   
    100. D(H  19,C   2,C   1,C   0)     65.1560         0.011115   
    101. D(H  20,C   2,C   1,H  18)     62.0502         0.011115   
    102. D(H  20,C   2,C   1,C   3)   -178.7644         0.011115   
    103. D(H  20,C   2,C   1,C   0)    -55.0027         0.011115   
    104. D(H  19,C   2,C   1,H  18)   -177.7911         0.011115   
    105. D(C   4,C   3,C   1,H  18)    -59.7670         0.010296   
    106. D(C   4,C   3,C   1,C   0)     59.6963         0.010296   
    107. D(C   4,C   3,C   1,C   2)   -177.7921         0.010296   
    108. D(H  22,C   3,C   1,H  18)    177.3144         0.010296   
    109. D(H  22,C   3,C   1,C   2)     59.2893         0.010296   
    110. D(H  22,C   3,C   1,C   0)    -63.2223         0.010296   
    111. D(C   9,C   4,C   3,C   1)   -118.0954         0.011706   
    112. D(C   5,C   4,C   3,H  23)    -60.9507         0.011706   
    113. D(C   5,C   4,C   3,H  22)   -175.8268         0.011706   
    114. D(C   9,C   4,C   3,H  22)      4.6633         0.011706   
    115. D(C   5,C   4,C   3,C   1)     61.4145         0.011706   
    116. D(H  24,C   5,C   4,C   9)   -179.1235         0.025121   
    117. D(C   6,C   5,C   4,C   9)      0.6709         0.025121   
    118. D(H  24,C   5,C   4,C   3)      1.3579         0.025121   
    119. D(C   6,C   5,C   4,C   3)   -178.8477         0.025121   
    120. D(H  25,C   6,C   5,H  24)     -0.0190         0.025633   
    121. D(H  25,C   6,C   5,C   4)   -179.8158         0.025633   
    122. D(C   7,C   6,C   5,C   4)     -1.1136         0.025633   
    123. D(C   7,C   6,C   5,H  24)    178.6831         0.025633   
    124. D(C  10,C   7,C   6,H  25)      2.0638         0.024395   
    125. D(C  10,C   7,C   6,C   5)   -176.6087         0.024395   
    126. D(C   8,C   7,C   6,H  25)    179.5470         0.024395   
    127. D(C   8,C   7,C   6,C   5)      0.8745         0.024395   
    128. D(H  26,C   8,C   7,C  10)     -2.1906         0.024411   
    129. D(H  26,C   8,C   7,C   6)   -179.6203         0.024411   
    130. D(C   9,C   8,C   7,C  10)    177.2047         0.024411   
    131. D(C   9,C   8,C   7,C   6)     -0.2251         0.024411   
    132. D(H  27,C   9,C   8,C   7)   -179.8436         0.025417   
    133. D(C   4,C   9,C   8,H  26)    179.2119         0.025417   
    134. D(C   4,C   9,C   8,C   7)     -0.1970         0.025417   
    135. D(H  27,C   9,C   4,C   5)    179.6203         0.025122   
    136. D(H  27,C   9,C   4,C   3)     -0.8604         0.025122   
    137. D(C   8,C   9,C   4,C   5)     -0.0220         0.025122   
    138. D(H  27,C   9,C   8,H  26)     -0.4347         0.025417   
    139. D(C   8,C   9,C   4,C   3)    179.4974         0.025122   
    140. D(H  28,C  10,C   7,C   6)      0.7505         0.010889   
    141. D(C  12,C  10,C   7,C   8)     66.0519         0.010889   
    142. D(C  12,C  10,C   7,C   6)   -116.5547         0.010889   
    143. D(C  11,C  10,C   7,C   8)    -59.6037         0.010889   
    144. D(C  11,C  10,C   7,C   6)    117.7897         0.010889   
    145. D(H  30,C  11,C  10,H  28)     60.7848         0.010972   
    146. D(H  30,C  11,C  10,C  12)    173.8403         0.010972   
    147. D(H  30,C  11,C  10,C   7)    -56.2593         0.010972   
    148. D(H  29,C  11,C  10,H  28)   -178.7637         0.010972   
    149. D(H  29,C  11,C  10,C  12)    -65.7082         0.010972   
    150. D(H  29,C  11,C  10,C   7)     64.1922         0.010972   
    151. D(O  14,C  12,C  10,C  11)    -46.9849         0.010571   
    152. D(O  14,C  12,C  10,C   7)   -172.8776         0.010571   
    153. D(O  13,C  12,C  10,H  28)   -110.0046         0.010571   
    154. D(O  13,C  12,C  10,C  11)    134.9005         0.010571   
    155. D(O  13,C  12,C  10,C   7)      9.0077         0.010571   
    156. D(H  32,O  13,C  12,O  14)   -177.9128         0.030925   
    157. D(H  32,O  13,C  12,C  10)      0.2405         0.030925   
    -----------------------------------------------------------------

Number of atoms                         .... 33
Number of degrees of freedom            .... 157


         *************************************************************
         *                GEOMETRY OPTIMIZATION CYCLE   1            *
         *************************************************************
---------------------------------
CARTESIAN COORDINATES (ANGSTROEM)
---------------------------------
  C      2.842510    1.014110   -0.690960
  C      2.437690   -0.009060    0.374610
  C      0.915750   -0.012780    0.534930
  C      2.946700   -1.423850    0.034700
  C      4.452510   -1.513090   -0.087910
  C      5.277230   -1.215550    1.002860
  C      6.667580   -1.274990    0.882040
  C      7.268100   -1.656380   -0.327510
  C      6.437700   -1.958350   -1.417510
  C      5.046700   -1.885390   -1.299020
  C      8.783870   -1.788420   -0.411690
  C      9.164180   -3.235080   -0.743820
  C      9.513210   -0.839790   -1.362140
  O      8.781460    0.156950   -1.905060
  O     10.710310   -0.940170   -1.605150
  H      2.470370    2.010460   -0.430770
  H      2.438690    0.744240   -1.672520
  H      3.930590    1.089590   -0.779720
  H      2.868570    0.312180    1.331760
  H      0.418950   -0.363010   -0.376260
  H      0.546190    0.994340    0.755010
  H      0.613060   -0.666040    1.360240
  H      2.478110   -1.765750   -0.899720
  H      2.625320   -2.133830    0.806930
  H      4.840790   -0.937170    1.960230
  H      7.274980   -1.039130    1.754990
  H      6.862000   -2.264560   -2.372910
  H      4.429200   -2.128150   -2.161630
  H      9.195240   -1.554450    0.580860
  H      8.802730   -3.531290   -1.735620
  H      8.741970   -3.930270   -0.010210
  H     10.251230   -3.369730   -0.746220
  H      7.847100    0.180330   -1.633980

----------------------------
CARTESIAN COORDINATES (A.U.)
----------------------------
  NO LB      ZA    FRAG     MASS         X           Y           Z
   0 C     6.0000    0    12.011    5.371565    1.916390   -1.305725
   1 C     6.0000    0    12.011    4.606566   -0.017121    0.707910
   2 C     6.0000    0    12.011    1.730517   -0.024151    1.010871
   3 C     6.0000    0    12.011    5.568456   -2.690687    0.065573
   4 C     6.0000    0    12.011    8.414025   -2.859326   -0.166126
   5 C     6.0000    0    12.011    9.972519   -2.297057    1.895131
   6 C     6.0000    0    12.011   12.599900   -2.409382    1.666814
   7 C     6.0000    0    12.011   13.734719   -3.130105   -0.618904
   8 C     6.0000    0    12.011   12.165490   -3.700745   -2.678706
   9 C     6.0000    0    12.011    9.536881   -3.562871   -2.454792
  10 C     6.0000    0    12.011   16.599109   -3.379624   -0.777981
  11 C     6.0000    0    12.011   17.317790   -6.113415   -1.405616
  12 C     6.0000    0    12.011   17.977362   -1.586973   -2.574072
  13 O     8.0000    0    15.999   16.594554    0.296593   -3.600042
  14 O     8.0000    0    15.999   20.239553   -1.776664   -3.033294
  15 H     1.0000    0     1.008    4.668323    3.799219   -0.814037
  16 H     1.0000    0     1.008    4.608456    1.406410   -3.160605
  17 H     1.0000    0     1.008    7.427739    2.059027   -1.473457
  18 H     1.0000    0     1.008    5.420812    0.589935    2.516662
  19 H     1.0000    0     1.008    0.791701   -0.685989   -0.711028
  20 H     1.0000    0     1.008    1.032150    1.879030    1.426762
  21 H     1.0000    0     1.008    1.158516   -1.258633    2.570481
  22 H     1.0000    0     1.008    4.682949   -3.336784   -1.700224
  23 H     1.0000    0     1.008    4.961136   -4.032354    1.524877
  24 H     1.0000    0     1.008    9.147767   -1.770995    3.704298
  25 H     1.0000    0     1.008   13.747720   -1.963671    3.316450
  26 H     1.0000    0     1.008   12.967301   -4.279398   -4.484150
  27 H     1.0000    0     1.008    8.369975   -4.021621   -4.084889
  28 H     1.0000    0     1.008   17.376485   -2.937485    1.097666
  29 H     1.0000    0     1.008   16.634749   -6.673171   -3.279846
  30 H     1.0000    0     1.008   16.519929   -7.427134   -0.019294
  31 H     1.0000    0     1.008   19.372017   -6.367867   -1.410151
  32 H     1.0000    0     1.008   14.828870    0.340774   -3.087775

--------------------------------
INTERNAL COORDINATES (ANGSTROEM)
--------------------------------
 C      0   0   0     0.000000000000     0.00000000     0.00000000
 C      1   0   0     1.531729579985     0.00000000     0.00000000
 C      2   1   0     1.530365219286   109.71462294     0.00000000
 C      2   1   3     1.541512482045   111.86401706   122.92518346
 C      4   2   1     1.513426822083   113.61082143    59.69630834
 C      5   4   2     1.399454294681   120.70831907    61.41445029
 C      6   5   4     1.396854934666   120.67102574   181.15234846
 C      7   6   5     1.403244029027   120.80241279   358.88635262
 C      8   7   6     1.403157168994   118.34759068     0.87448519
 C      9   8   7     1.397942789137   120.78338492   359.77494972
 C      8   7   6     1.523837106419   119.79202825   183.39127563
 C     11   8   7     1.532243841104   109.91799153   117.78969411
 C     11   8   7     1.528133147013   117.08534531   243.44529816
 O     13  11   8     1.350448376096   116.71918838     9.00774310
 O     13  11   8     1.225633882732   122.59119007   187.12239043
 H      1   2   3     1.094943075324   110.65261736    57.00811835
 H      1   2   3     1.095153159563   111.18923518   296.76975473
 H      1   2   3     1.094300532029   111.42529722   176.08204879
 H      2   1   3     1.097719834247   107.90021058   243.23514575
 H      3   2   1     1.095325754741   111.38885930    65.15597338
 H      3   2   1     1.095125789305   110.75780569   304.99727656
 H      3   2   1     1.095219822593   110.80840791   185.54919722
 H      4   2   1     1.099824047064   109.38835291   296.77771846
 H      4   2   1     1.097130747769   109.99855324   180.99406380
 H      6   5   4     1.088362354595   120.24364158     1.35791652
 H      7   6   5     1.089314647886   118.45534345   180.18423661
 H      9   8   7     1.089304463454   120.75086099   180.37967587
 H     10   9   8     1.088271418213   119.06285400   180.15643017
 H     11   8   7     1.099601173290   107.68759136     0.75054335
 H     12  11   8     1.096382098814   111.67474472    64.19221545
 H     12  11   8     1.095323720322   111.00105965   303.74073201
 H     12  11   8     1.095360253524   111.27581512   183.66021351
 H     14  13  11     0.973169872324   115.21354677     0.24050772

---------------------------
INTERNAL COORDINATES (A.U.)
---------------------------
 C      0   0   0     0.000000000000     0.00000000     0.00000000
 C      1   0   0     2.894549417397     0.00000000     0.00000000
 C      2   1   0     2.891971149329   109.71462294     0.00000000
 C      2   1   3     2.913036423086   111.86401706   122.92518346
 C      4   2   1     2.859962217467   113.61082143    59.69630834
 C      5   4   2     2.644585353886   120.70831907    61.41445029
 C      6   5   4     2.639673275335   120.67102574   181.15234846
 C      7   6   5     2.651746913921   120.80241279   358.88635262
 C      8   7   6     2.651582772247   118.34759068     0.87448519
 C      9   8   7     2.641729022359   120.78338492   359.77494972
 C      8   7   6     2.879634803839   119.79202825   183.39127563
 C     11   8   7     2.895521230073   109.91799153   117.78969411
 C     11   8   7     2.887753144022   117.08534531   243.44529816
 O     13  11   8     2.551977588820   116.71918838     9.00774310
 O     13  11   8     2.316112378817   122.59119007   187.12239043
 H      1   2   3     2.069142544596   110.65261736    57.00811835
 H      1   2   3     2.069539546272   111.18923518   296.76975473
 H      1   2   3     2.067928313740   111.42529722   176.08204879
 H      2   1   3     2.074389858501   107.90021058   243.23514575
 H      3   2   1     2.069865703892   111.38885930    65.15597338
 H      3   2   1     2.069487823980   110.75780569   304.99727656
 H      3   2   1     2.069665521142   110.80840791   185.54919722
 H      4   2   1     2.078366244452   109.38835291   296.77771846
 H      4   2   1     2.073276646388   109.99855324   180.99406380
 H      6   5   4     2.056706784655   120.24364158     1.35791652
 H      7   6   5     2.058506358174   118.45534345   180.18423661
 H      9   8   7     2.058487112385   120.75086099   180.37967587
 H     10   9   8     2.056534939797   119.06285400   180.15643017
 H     11   8   7     2.077945074056   107.68759136     0.75054335
 H     12  11   8     2.071861904892   111.67474472    64.19221545
 H     12  11   8     2.069861859396   111.00105965   303.74073201
 H     12  11   8     2.069930897143   111.27581512   183.66021351
 H     14  13  11     1.839024540476   115.21354677     0.24050772

---------------------
BASIS SET INFORMATION
---------------------
There are 3 groups of distinct atoms

 Group   1 Type C   : 6s3p contracted to 2s1p pattern {33/3}
 Group   2 Type O   : 6s3p contracted to 2s1p pattern {33/3}
 Group   3 Type H   : 3s contracted to 1s pattern {3}

Atom   0C    basis set group =>   1
Atom   1C    basis set group =>   1
Atom   2C    basis set group =>   1
Atom   3C    basis set group =>   1
Atom   4C    basis set group =>   1
Atom   5C    basis set group =>   1
Atom   6C    basis set group =>   1
Atom   7C    basis set group =>   1
Atom   8C    basis set group =>   1
Atom   9C    basis set group =>   1
Atom  10C    basis set group =>   1
Atom  11C    basis set group =>   1
Atom  12C    basis set group =>   1
Atom  13O    basis set group =>   2
Atom  14O    basis set group =>   2
Atom  15H    basis set group =>   3
Atom  16H    basis set group =>   3
Atom  17H    basis set group =>   3
Atom  18H    basis set group =>   3
Atom  19H    basis set group =>   3
Atom  20H    basis set group =>   3
Atom  21H    basis set group =>   3
Atom  22H    basis set group =>   3
Atom  23H    basis set group =>   3
Atom  24H    basis set group =>   3
Atom  25H    basis set group =>   3
Atom  26H    basis set group =>   3
Atom  27H    basis set group =>   3
Atom  28H    basis set group =>   3
Atom  29H    basis set group =>   3
Atom  30H    basis set group =>   3
Atom  31H    basis set group =>   3
Atom  32H    basis set group =>   3
---------------------------------
AUXILIARY/J BASIS SET INFORMATION
---------------------------------
There are 3 groups of distinct atoms

 Group   1 Type C   : 12s5p4d2f1g contracted to 6s4p3d1f1g pattern {711111/2111/211/2/1}
 Group   2 Type O   : 12s5p4d2f1g contracted to 6s4p3d1f1g pattern {711111/2111/211/2/1}
 Group   3 Type H   : 5s2p1d contracted to 3s1p1d pattern {311/2/1}

Atom   0C    basis set group =>   1
Atom   1C    basis set group =>   1
Atom   2C    basis set group =>   1
Atom   3C    basis set group =>   1
Atom   4C    basis set group =>   1
Atom   5C    basis set group =>   1
Atom   6C    basis set group =>   1
Atom   7C    basis set group =>   1
Atom   8C    basis set group =>   1
Atom   9C    basis set group =>   1
Atom  10C    basis set group =>   1
Atom  11C    basis set group =>   1
Atom  12C    basis set group =>   1
Atom  13O    basis set group =>   2
Atom  14O    basis set group =>   2
Atom  15H    basis set group =>   3
Atom  16H    basis set group =>   3
Atom  17H    basis set group =>   3
Atom  18H    basis set group =>   3
Atom  19H    basis set group =>   3
Atom  20H    basis set group =>   3
Atom  21H    basis set group =>   3
Atom  22H    basis set group =>   3
Atom  23H    basis set group =>   3
Atom  24H    basis set group =>   3
Atom  25H    basis set group =>   3
Atom  26H    basis set group =>   3
Atom  27H    basis set group =>   3
Atom  28H    basis set group =>   3
Atom  29H    basis set group =>   3
Atom  30H    basis set group =>   3
Atom  31H    basis set group =>   3
Atom  32H    basis set group =>   3
------------------------------------------------------------------------------
                             ORCA STARTUP CALCULATIONS
                           -- RI-GTO INTEGRALS CHOSEN --
------------------------------------------------------------------------------
------------------------------------------------------------------------------
                   ___                                                        
                  /   \      - P O W E R E D   B Y -                         
                 /     \                                                     
                 |  |  |   _    _      __       _____    __    __             
                 |  |  |  | |  | |    /  \     |  _  \  |  |  /  |          
                  \  \/   | |  | |   /    \    | | | |  |  | /  /          
                 / \  \   | |__| |  /  /\  \   | |_| |  |  |/  /          
                |  |  |   |  __  | /  /__\  \  |    /   |      \           
                |  |  |   | |  | | |   __   |  |    \   |  |\   \          
                \     /   | |  | | |  |  |  |  | |\  \  |  | \   \       
                 \___/    |_|  |_| |__|  |__|  |_| \__\ |__|  \__/        
                                                                              
                      - O R C A' S   B I G   F R I E N D -                    
                                      &                                       
                       - I N T E G R A L  F E E D E R -                       
                                                                              
 v1 FN, 2020, v2 2021, v3 2022-2024                                           
------------------------------------------------------------------------------


----------------------
SHARK INTEGRAL PACKAGE
----------------------

Number of atoms                             ...     33
Number of basis functions                   ...     93
Number of shells                            ...     63
Maximum angular momentum                    ...      1
Integral batch strategy                     ... SHARK/LIBINT Hybrid
RI-J (if used) integral strategy            ... SPLIT-RIJ (Revised 2003 algorithm where possible)
Printlevel                                  ...      1
Contraction scheme used                     ... SEGMENTED contraction
Prescreening option                         ... SCHWARTZ
   Thresh                                   ... 2.500e-11
   Tcut                                     ... 2.500e-12
   Tpresel                                  ... 2.500e-12 
Coulomb Range Separation                    ... NOT USED
Exchange Range Separation                   ... NOT USED
Multipole approximations                    ... NOT USED
Finite Nucleus Model                        ... NOT USED
CABS basis                                  ... NOT available
Auxiliary Coulomb fitting basis             ... AVAILABLE
   # of basis functions in Aux-J            ...    933
   # of shells in Aux-J                     ...    315
   Maximum angular momentum in Aux-J        ...      4
Auxiliary J/K fitting basis                 ... NOT available
Auxiliary Correlation fitting basis         ... NOT available
Auxiliary 'external' fitting basis          ... NOT available

Checking pre-screening integrals            ... done (  0.0 sec) Dimension = 63
Check shell pair data                       ... done (  0.0 sec)
Shell pair information
Shell pair cut-off parameter TPreSel        ...   2.5e-12
Total number of shell pairs                 ...      2016
Shell pairs after pre-screening             ...      1678
Total number of primitive shell pairs       ...     18144
Primitive shell pairs kept                  ...      9957
          la=0 lb=0:    928 shell pairs
          la=1 lb=0:    637 shell pairs
          la=1 lb=1:    113 shell pairs

Calculating one electron integrals          ... done (  0.0 sec)
Calculating RI/J V-Matrix + Cholesky decomp.... done (  0.0 sec)
Calculating Nuclear repulsion               ... done (  0.0 sec) ENN=    968.504549123236 Eh

Diagonalization of the overlap matrix:
Smallest eigenvalue                        ... 1.738e-01
Time for diagonalization                   ...    0.001 sec
Threshold for overlap eigenvalues          ... 1.000e-07
Number of eigenvalues below threshold      ... 0
Time for construction of square roots      ...    0.001 sec
Total time needed                          ...    0.003 sec

-------------------
DFT GRID GENERATION
-------------------

General Integration Accuracy     IntAcc      ... 4.388
Radial Grid Type                 RadialGrid  ... OptM3 with GC (2021)
Angular Grid (max. ang.)         AngularGrid ... 4 (Lebedev-302)
Angular grid pruning method      GridPruning ... 4 (adaptive)
Weight generation scheme         WeightScheme... mBecke (2022)
Basis function cutoff            BFCut       ... 1.0000e-11
Integration weight cutoff        WCut        ... 1.0000e-14
Partially contracted basis set               ... off
Rotationally invariant grid construction     ... off
Angular grids for H and He will be reduced by one unit

Total number of grid points                  ...   146952
Total number of batches                      ...     2315
Average number of points per batch           ...       63
Average number of grid points per atom       ...     4453

--------------------
COSX GRID GENERATION
--------------------

GRIDX 1
-------
General Integration Accuracy     IntAcc      ... 3.816
Radial Grid Type                 RadialGrid  ... OptM3 with GC (2021)
Angular Grid (max. ang.)         AngularGrid ... 1 (Lebedev-50)
Angular grid pruning method      GridPruning ... 4 (adaptive)
Weight generation scheme         WeightScheme... mBecke (2022)
Basis function cutoff            BFCut       ... 1.0000e-11
Integration weight cutoff        WCut        ... 1.0000e-14
Partially contracted basis set               ... on
Rotationally invariant grid construction     ... off
Angular grids for H and He will be reduced by one unit

Total number of grid points                  ...    18730
Total number of batches                      ...      165
Average number of points per batch           ...      113
Average number of grid points per atom       ...      568
UseSFitting                                  ... on

GRIDX 2
-------
General Integration Accuracy     IntAcc      ... 4.020
Radial Grid Type                 RadialGrid  ... OptM3 with GC (2021)
Angular Grid (max. ang.)         AngularGrid ... 2 (Lebedev-110)
Angular grid pruning method      GridPruning ... 4 (adaptive)
Weight generation scheme         WeightScheme... mBecke (2022)
Basis function cutoff            BFCut       ... 1.0000e-11
Integration weight cutoff        WCut        ... 1.0000e-14
Partially contracted basis set               ... on
Rotationally invariant grid construction     ... off
Angular grids for H and He will be reduced by one unit

Total number of grid points                  ...    39738
Total number of batches                      ...      329
Average number of points per batch           ...      120
Average number of grid points per atom       ...     1204
UseSFitting                                  ... on

GRIDX 3
-------
General Integration Accuracy     IntAcc      ... 4.338
Radial Grid Type                 RadialGrid  ... OptM3 with GC (2021)
Angular Grid (max. ang.)         AngularGrid ... 3 (Lebedev-194)
Angular grid pruning method      GridPruning ... 4 (adaptive)
Weight generation scheme         WeightScheme... mBecke (2022)
Basis function cutoff            BFCut       ... 1.0000e-11
Integration weight cutoff        WCut        ... 1.0000e-14
Partially contracted basis set               ... on
Rotationally invariant grid construction     ... off
Angular grids for H and He will be reduced by one unit

Total number of grid points                  ...    86711
Total number of batches                      ...      695
Average number of points per batch           ...      124
Average number of grid points per atom       ...     2628
UseSFitting                                  ... on
Initializing property integral containers    ... done (  0.0 sec)

SHARK setup successfully completed in   1.5 seconds

Maximum memory used throughout the entire STARTUP-calculation: 51.7 MB
-------------------------------------------------------------------------------
                                 ORCA GUESS
                   Start orbitals & Density for SCF / CASSCF
-------------------------------------------------------------------------------

------------
SCF SETTINGS
------------
Hamiltonian:
 Density Functional     Method          .... DFT(GTOs)
 Exchange Functional    Exchange        .... B88
   X-Alpha parameter    XAlpha          ....  0.666667
   Becke's b parameter  XBeta           ....  0.004200
 Correlation Functional Correlation     .... LYP
 LDA part of GGA corr.  LDAOpt          .... VWN-5
 Gradients option       PostSCFGGA      .... off
 Hybrid DFT is turned on
   Fraction HF Exchange ScalHFX         ....  0.200000
   Scaling of DF-GGA-X  ScalDFX         ....  0.720000
   Scaling of DF-GGA-C  ScalDFC         ....  0.810000
   Scaling of DF-LDA-C  ScalLDAC        ....  1.000000
   Perturbative correction              ....  0.000000
   NL short-range parameter             ....  4.800000
 RI-approximation to the Coulomb term is turned on
   Number of AuxJ basis functions       .... 933
   RIJ-COSX (HFX calculated with COS-X)).... on


General Settings:
 Integral files         IntName         .... Ibuprofen\Ibuprofen_B3LYP_STO-3G\Ibuprofen_B3LYP_STO-3G.orcainp
 Hartree-Fock type      HFTyp           .... RHF
 Total Charge           Charge          ....    0
 Multiplicity           Mult            ....    1
 Number of Electrons    NEL             ....  112
 Basis Dimension        Dim             ....   93
 Nuclear Repulsion      ENuc            ....    968.5045491232 Eh

Convergence Acceleration:
 AO-DIIS                CNVDIIS         .... on
   Start iteration      DIISMaxIt       ....    12
   Startup error        DIISStart       ....  0.200000
   # of expansion vecs  DIISMaxEq       ....     5
   Bias factor          DIISBfac        ....   1.050
   Max. coefficient     DIISMaxC        ....  10.000
 MO-DIIS                CNVKDIIS        .... off
 Trust-Rad. Augm. Hess. CNVTRAH         .... auto
   Auto Start mean grad. ratio tolernc. ....  1.125000
   Auto Start start iteration           ....    50
   Auto Start num. interpolation iter.  ....    10
   Max. Number of Micro iterations      ....    24
   Max. Number of Macro iterations      .... Maxiter - #DIIS iter
   Number of Davidson start vectors     ....     2
   Converg. threshold    (grad. norm)   ....   1.000e-05
   Grad. Scal. Fac. for Micro threshold ....   0.100
   Minimum threshold for Micro iter.    ....   1.000e-02
   NR start threshold (gradient norm)   ....   1.000e-04
   Initial trust radius                 ....   0.400
   Minimum AH scaling param. (alpha)    ....   1.000
   Maximum AH scaling param. (alpha)    .... 1000.000
   Quad. conv. algorithm                .... NR
   White noise on init. David. guess    .... on
   Maximum white noise                  ....   0.010
   Pseudo random numbers                .... off
   Inactive MOs                         .... canonical
   Orbital update algorithm             .... Taylor
   Preconditioner                       .... Diag
   Full preconditioner red. dimension   ....   250
 SOSCF                  CNVSOSCF        .... on
   Start iteration      SOSCFMaxIt      ....   150
   Startup grad/error   SOSCFStart      ....  0.003300
   Hessian update       SOSCFHessUp     .... L-BFGS
 Level Shifting         CNVShift        .... on
   Level shift para.    LevelShift      ....    0.2500
   Turn off err/grad.   ShiftErr        ....    0.0010
 Zerner damping         CNVZerner       .... off
 Static damping         CNVDamp         .... on
   Fraction old density DampFac         ....    0.7000
   Max. Damping (<1)    DampMax         ....    0.9800
   Min. Damping (>=0)   DampMin         ....    0.0000
   Turn off err/grad.   DampErr         ....    0.1000

SCF Procedure:
 Maximum # iterations   MaxIter         ....   125
 SCF integral mode      SCFMode         .... Direct
   Integral package                     .... SHARK and LIBINT hybrid scheme
 Reset frequency        DirectResetFreq ....    20
 Integral Threshold     Thresh          ....  2.500e-11 Eh
 Primitive CutOff       TCut            ....  2.500e-12 Eh

Convergence Tolerance:
 Convergence Check Mode ConvCheckMode   .... Total+1el-Energy
 Convergence forced     ConvForced      .... 0
 Energy Change          TolE            ....  1.000e-08 Eh
 1-El. energy change                    ....  1.000e-05 Eh
 Orbital Gradient       TolG            ....  1.000e-05
 Orbital Rotation angle TolX            ....  1.000e-05
 DIIS Error             TolErr          ....  5.000e-07

------------------------------
INITIAL GUESS: MODEL POTENTIAL
------------------------------
Loading Hartree-Fock densities                     ... done
Calculating cut-offs                               ... done
Initializing the effective Hamiltonian             ... done
Setting up the integral package (SHARK)            ... done
Starting the Coulomb interaction                   ... done (   0.1 sec)
Making the grid                                    ... done (   0.2 sec)
Mapping shells                                     ... done
Starting the XC term evaluation                    ... done (   0.1 sec)
  promolecular density results
     # of electrons  =    111.998148311
     EX              =    -88.581814603
     EC              =     -3.734564402
     EX+EC           =    -92.316379005
Transforming the Hamiltonian                       ... done (   0.0 sec)
Diagonalizing the Hamiltonian                      ... done (   0.0 sec)
Back transforming the eigenvectors                 ... done (   0.0 sec)
Now organizing SCF variables                       ... done
                      ------------------
                      INITIAL GUESS DONE (   0.4 sec)
                      ------------------
             **** ENERGY FILE WAS UPDATED (Ibuprofen\Ibuprofen_B3LYP_STO-3G\Ibuprofen_B3LYP_STO-3G.orcainp.en.tmp) ****
Finished Guess after   0.4 sec
Maximum memory used throughout the entire GUESS-calculation: 21.5 MB

-------------------------------------------------------------------------------------------
                                      ORCA LEAN-SCF
                              memory conserving SCF solver
-------------------------------------------------------------------------------------------

--------------------
CPCM SOLVATION MODEL
--------------------
CPCM parameters:
  Epsilon                                         ...      80.1510
  Refrac                                          ...       1.3328
  Rsolv                                           ...       1.3000
  Surface type                                    ... GAUSSIAN VDW
  Discretization scheme                           ... Constant charge density
    Threshold for H atoms                         ...       5.0000 (charges/Ang^2)
    Threshold for non-H atoms                     ...       5.0000 (charges/Ang^2)
  Epsilon function type                           ...         CPCM
Solvent:                                          ... WATER
Radii:
  Scheme                                          ... Element-dependent radii
  Radius for C  used is    3.8550 Bohr (=   2.0400 Ang.)
  Radius for O  used is    3.4469 Bohr (=   1.8240 Ang.)
  Radius for H  used is    2.4944 Bohr (=   1.3200 Ang.)
Calculating surface                               ...        done! (  0.0s)
Cavity surface points                             ...         2790
Cavity Volume                                     ...    1840.2604
Cavity Surface-area                               ...     988.4408
Calculating surface distance matrix               ...        done! (  0.0s)
Performing Cholesky decomposition & store         ...        done! (  0.2s)
Overall time for CPCM initialization              ...                 0.2s

----------------------------------------D-I-I-S--------------------------------------------
Iteration    Energy (Eh)           Delta-E    RMSDP     MaxDP     DIISErr   Damp  Time(sec)
-------------------------------------------------------------------------------------------
               ***  Starting incremental Fock matrix formation  ***
    1    -647.8872567443210073     0.00e+00  5.96e-03  1.05e-01  1.79e-01  0.700   2.6
    2    -647.9637075306635552    -7.65e-02  4.19e-03  7.09e-02  8.03e-02  0.700   1.5
                               ***Turning on AO-DIIS***
    3    -647.9954502964591256    -3.17e-02  1.71e-03  2.71e-02  5.05e-02  0.700   1.4
    4    -648.0146096206398170    -1.92e-02  2.74e-03  4.91e-02  2.99e-02  0.000   1.4
    5    -648.0554076602785472    -4.08e-02  5.17e-04  6.62e-03  6.30e-03  0.000   1.4
                              *** Initializing SOSCF ***
---------------------------------------S-O-S-C-F--------------------------------------
Iteration    Energy (Eh)           Delta-E    RMSDP     MaxDP     MaxGrad    Time(sec)
--------------------------------------------------------------------------------------
    6    -648.0556863245907380    -2.79e-04  9.63e-05  1.36e-03  1.01e-03     1.3
               *** Restarting incremental Fock matrix formation ***
    7    -648.0556812878631945     5.04e-06  4.71e-05  7.83e-04  1.62e-04     2.6
    8    -648.0556816030547225    -3.15e-07  2.13e-05  4.28e-04  1.96e-04     1.7
    9    -648.0556819461827445    -3.43e-07  1.27e-05  3.14e-04  8.70e-05     1.5
   10    -648.0556819342162953     1.20e-08  6.97e-06  1.59e-04  6.68e-05     1.4
   11    -648.0556819836318709    -4.94e-08  2.48e-06  3.75e-05  7.41e-06     1.2
   12    -648.0556819846452754    -1.01e-09  1.22e-06  1.63e-05  4.10e-06     1.2
                 **** Energy Check signals convergence ****

               *****************************************************
               *                     SUCCESS                       *
               *           SCF CONVERGED AFTER  12 CYCLES          *
               *****************************************************

Recomputing exchange energy using gridx3       ... done (    3.554 sec)
Old exchange energy                            :    -18.105415585 Eh
New exchange energy                            :    -18.105541135 Eh
Exchange energy change after final integration :     -0.000125550 Eh
Total energy after final integration           :   -648.055807534 Eh
             **** ENERGY FILE WAS UPDATED (Ibuprofen\Ibuprofen_B3LYP_STO-3G\Ibuprofen_B3LYP_STO-3G.orcainp.en.tmp) ****

----------------
TOTAL SCF ENERGY
----------------

Total Energy       :       -648.05580753440483 Eh          -17634.49504 eV

Components:
Nuclear Repulsion  :        968.50454912323642 Eh           26354.34861 eV
Electronic Energy  :      -1616.55126384896630 Eh          -43988.59623 eV
One Electron Energy:      -2805.34175931654408 Eh          -76337.23018 eV
Two Electron Energy:       1188.79049546757778 Eh           32348.63395 eV
CPCM Dielectric    :         -0.00896725891545 Eh              -0.24401 eV

Virial components:
Potential Energy   :      -1286.13592710987723 Eh          -34997.53782 eV
Kinetic Energy     :        638.08011957547239 Eh           17363.04277 eV
Virial Ratio       :          2.01563391124859

DFT components:
N(Alpha)           :       56.000003033113 electrons
N(Beta)            :       56.000003033113 electrons
N(Total)           :      112.000006066226 electrons
E(X)               :      -71.642864809282 Eh       
E(C)               :       -4.403146353716 Eh       
E(XC)              :      -76.046011162998 Eh       

CPCM Solvation Model Properties:
Surface-charge          :         -0.01366108552413
Corrected charge        :          0.00000000000000
Outlying charge corr.   :          0.00001087558450 Eh               0.00030 eV
Free-energy (cav+disp)  :  This term is not implemented in the current solvation scheme

---------------
SCF CONVERGENCE
---------------

  Last Energy change         ...    1.0134e-09  Tolerance :   1.0000e-08
  Last MAX-Density change    ...    1.6291e-05  Tolerance :   1.0000e-07
  Last RMS-Density change    ...    1.2189e-06  Tolerance :   5.0000e-09
  Last DIIS Error            ...    1.0076e-03  Tolerance :   5.0000e-07
  Last Orbital Gradient      ...    4.0969e-06  Tolerance :   1.0000e-05
  Last Orbital Rotation      ...    5.1385e-06  Tolerance :   1.0000e-05


----------------
ORBITAL ENERGIES
----------------

  NO   OCC          E(Eh)            E(eV) 
   0   2.0000     -18.924624      -514.9652 
   1   2.0000     -18.851939      -512.9873 
   2   2.0000     -10.108606      -275.0691 
   3   2.0000     -10.030252      -272.9370 
   4   2.0000     -10.017201      -272.5819 
   5   2.0000     -10.011341      -272.4224 
   6   2.0000     -10.010251      -272.3928 
   7   2.0000     -10.009046      -272.3600 
   8   2.0000     -10.004956      -272.2487 
   9   2.0000     -10.000321      -272.1226 
  10   2.0000     -10.000117      -272.1170 
  11   2.0000      -9.998122      -272.0627 
  12   2.0000      -9.997627      -272.0493 
  13   2.0000      -9.993339      -271.9326 
  14   2.0000      -9.992489      -271.9095 
  15   2.0000      -1.028847       -27.9963 
  16   2.0000      -0.945219       -25.7207 
  17   2.0000      -0.816525       -22.2188 
  18   2.0000      -0.774170       -21.0662 
  19   2.0000      -0.748104       -20.3569 
  20   2.0000      -0.699634       -19.0380 
  21   2.0000      -0.695870       -18.9356 
  22   2.0000      -0.642905       -17.4943 
  23   2.0000      -0.635680       -17.2977 
  24   2.0000      -0.603663       -16.4265 
  25   2.0000      -0.565591       -15.3905 
  26   2.0000      -0.546106       -14.8603 
  27   2.0000      -0.531817       -14.4715 
  28   2.0000      -0.518490       -14.1088 
  29   2.0000      -0.471110       -12.8196 
  30   2.0000      -0.445551       -12.1241 
  31   2.0000      -0.430873       -11.7246 
  32   2.0000      -0.414332       -11.2746 
  33   2.0000      -0.401941       -10.9374 
  34   2.0000      -0.394271       -10.7286 
  35   2.0000      -0.390194       -10.6177 
  36   2.0000      -0.374257       -10.1840 
  37   2.0000      -0.372412       -10.1338 
  38   2.0000      -0.359189        -9.7740 
  39   2.0000      -0.345699        -9.4070 
  40   2.0000      -0.343330        -9.3425 
  41   2.0000      -0.339997        -9.2518 
  42   2.0000      -0.332130        -9.0377 
  43   2.0000      -0.318942        -8.6788 
  44   2.0000      -0.311436        -8.4746 
  45   2.0000      -0.304127        -8.2757 
  46   2.0000      -0.290068        -7.8931 
  47   2.0000      -0.287747        -7.8300 
  48   2.0000      -0.281784        -7.6677 
  49   2.0000      -0.277898        -7.5620 
  50   2.0000      -0.266845        -7.2612 
  51   2.0000      -0.246815        -6.7162 
  52   2.0000      -0.193783        -5.2731 
  53   2.0000      -0.185943        -5.0598 
  54   2.0000      -0.180171        -4.9027 
  55   2.0000      -0.141084        -3.8391 
  56   0.0000       0.088158         2.3989 
  57   0.0000       0.092985         2.5303 
  58   0.0000       0.124832         3.3968 
  59   0.0000       0.246595         6.7102 
  60   0.0000       0.324197         8.8218 
  61   0.0000       0.333058         9.0630 
  62   0.0000       0.351742         9.5714 
  63   0.0000       0.365476         9.9451 
  64   0.0000       0.369075        10.0430 
  65   0.0000       0.386166        10.5081 
  66   0.0000       0.404124        10.9968 
*Only the first 10 virtual orbitals were printed.

                    ********************************
                    * MULLIKEN POPULATION ANALYSIS *
                    ********************************

-----------------------
MULLIKEN ATOMIC CHARGES
-----------------------
   0 C :   -0.225627
   1 C :   -0.042649
   2 C :   -0.224208
   3 C :   -0.141760
   4 C :    0.000104
   5 C :   -0.090052
   6 C :   -0.087041
   7 C :   -0.019981
   8 C :   -0.095105
   9 C :   -0.088614
  10 C :   -0.089269
  11 C :   -0.220283
  12 C :    0.240872
  13 O :   -0.266308
  14 O :   -0.251924
  15 H :    0.073482
  16 H :    0.072376
  17 H :    0.073485
  18 H :    0.072799
  19 H :    0.072733
  20 H :    0.073917
  21 H :    0.072714
  22 H :    0.077350
  23 H :    0.080896
  24 H :    0.084919
  25 H :    0.085251
  26 H :    0.085937
  27 H :    0.084801
  28 H :    0.094885
  29 H :    0.079750
  30 H :    0.081173
  31 H :    0.082244
  32 H :    0.253134
Sum of atomic charges:    0.0000000

--------------------------------
MULLIKEN REDUCED ORBITAL CHARGES
--------------------------------
  0 C s       :     3.189592  s :     3.189592
      pz      :     1.002419  p :     3.036036
      px      :     1.030329
      py      :     1.003287

  1 C s       :     3.167530  s :     3.167530
      pz      :     0.988274  p :     2.875119
      px      :     0.951571
      py      :     0.935275

  2 C s       :     3.189919  s :     3.189919
      pz      :     1.032506  p :     3.034289
      px      :     0.968217
      py      :     1.033567

  3 C s       :     3.181614  s :     3.181614
      pz      :     1.033872  p :     2.960146
      px      :     0.946898
      py      :     0.979376

  4 C s       :     3.131004  s :     3.131004
      pz      :     0.952520  p :     2.868892
      px      :     0.942156
      py      :     0.974217

  5 C s       :     3.141971  s :     3.141971
      pz      :     0.985175  p :     2.948081
      px      :     0.957317
      py      :     1.005589

  6 C s       :     3.145039  s :     3.145039
      pz      :     0.973421  p :     2.942002
      px      :     0.966880
      py      :     1.001700

  7 C s       :     3.134235  s :     3.134235
      pz      :     0.957875  p :     2.885745
      px      :     0.926875
      py      :     1.000995

  8 C s       :     3.144713  s :     3.144713
      pz      :     0.984593  p :     2.950392
      px      :     0.960846
      py      :     1.004953

  9 C s       :     3.143237  s :     3.143237
      pz      :     0.976099  p :     2.945377
      px      :     0.962783
      py      :     1.006495

 10 C s       :     3.174661  s :     3.174661
      pz      :     1.012159  p :     2.914609
      px      :     0.939175
      py      :     0.963275

 11 C s       :     3.191272  s :     3.191272
      pz      :     1.036708  p :     3.029012
      px      :     1.036604
      py      :     0.955699

 12 C s       :     3.077980  s :     3.077980
      pz      :     0.947899  p :     2.681148
      px      :     0.836155
      py      :     0.897094

 13 O s       :     3.807468  s :     3.807468
      pz      :     1.681482  p :     4.458841
      px      :     1.224038
      py      :     1.553320

 14 O s       :     3.881133  s :     3.881133
      pz      :     1.467331  p :     4.370791
      px      :     1.274461
      py      :     1.628999

 15 H s       :     0.926518  s :     0.926518

 16 H s       :     0.927624  s :     0.927624

 17 H s       :     0.926515  s :     0.926515

 18 H s       :     0.927201  s :     0.927201

 19 H s       :     0.927267  s :     0.927267

 20 H s       :     0.926083  s :     0.926083

 21 H s       :     0.927286  s :     0.927286

 22 H s       :     0.922650  s :     0.922650

 23 H s       :     0.919104  s :     0.919104

 24 H s       :     0.915081  s :     0.915081

 25 H s       :     0.914749  s :     0.914749

 26 H s       :     0.914063  s :     0.914063

 27 H s       :     0.915199  s :     0.915199

 28 H s       :     0.905115  s :     0.905115

 29 H s       :     0.920250  s :     0.920250

 30 H s       :     0.918827  s :     0.918827

 31 H s       :     0.917756  s :     0.917756

 32 H s       :     0.746866  s :     0.746866



                     *******************************
                     * LOEWDIN POPULATION ANALYSIS *
                     *******************************

----------------------
LOEWDIN ATOMIC CHARGES
----------------------
   0 C :   -0.127732
   1 C :    0.002948
   2 C :   -0.125996
   3 C :   -0.072022
   4 C :    0.008694
   5 C :   -0.055828
   6 C :   -0.052866
   7 C :   -0.013176
   8 C :   -0.059519
   9 C :   -0.054979
  10 C :   -0.052416
  11 C :   -0.118460
  12 C :    0.156354
  13 O :   -0.155006
  14 O :   -0.201769
  15 H :    0.039607
  16 H :    0.038533
  17 H :    0.039480
  18 H :    0.035047
  19 H :    0.038739
  20 H :    0.039927
  21 H :    0.038767
  22 H :    0.041060
  23 H :    0.044378
  24 H :    0.047280
  25 H :    0.047398
  26 H :    0.048067
  27 H :    0.047025
  28 H :    0.055316
  29 H :    0.044246
  30 H :    0.045292
  31 H :    0.046218
  32 H :    0.185392

-------------------------------
LOEWDIN REDUCED ORBITAL CHARGES
-------------------------------
  0 C s       :     3.012111  s :     3.012111
      pz      :     1.031501  p :     3.115620
      px      :     1.052289
      py      :     1.031830

  1 C s       :     3.022004  s :     3.022004
      pz      :     1.014127  p :     2.975047
      px      :     0.987545
      py      :     0.973375

  2 C s       :     3.012346  s :     3.012346
      pz      :     1.053473  p :     3.113650
      px      :     1.005832
      py      :     1.054345

  3 C s       :     3.021088  s :     3.021088
      pz      :     1.053530  p :     3.050934
      px      :     0.987481
      py      :     1.009922

  4 C s       :     3.025410  s :     3.025410
      pz      :     1.000975  p :     2.965897
      px      :     0.986212
      py      :     0.978709

  5 C s       :     3.021227  s :     3.021227
      pz      :     1.016840  p :     3.034600
      px      :     1.009139
      py      :     1.008621

  6 C s       :     3.024317  s :     3.024317
      pz      :     1.008959  p :     3.028549
      px      :     1.013997
      py      :     1.005593

  7 C s       :     3.029418  s :     3.029418
      pz      :     1.005220  p :     2.983758
      px      :     0.972945
      py      :     1.005594

  8 C s       :     3.023398  s :     3.023398
      pz      :     1.016099  p :     3.036121
      px      :     1.011764
      py      :     1.008257

  9 C s       :     3.022598  s :     3.022598
      pz      :     1.011606  p :     3.032381
      px      :     1.010410
      py      :     1.010365

 10 C s       :     3.032561  s :     3.032561
      pz      :     1.039015  p :     3.019855
      px      :     0.979554
      py      :     1.001287

 11 C s       :     3.012401  s :     3.012401
      pz      :     1.056990  p :     3.106059
      px      :     1.056831
      py      :     0.992238

 12 C s       :     3.041701  s :     3.041701
      pz      :     0.964363  p :     2.801945
      px      :     0.908212
      py      :     0.929370

 13 O s       :     3.658756  s :     3.658756
      pz      :     1.687693  p :     4.496250
      px      :     1.239316
      py      :     1.569241

 14 O s       :     3.767665  s :     3.767665
      pz      :     1.473071  p :     4.434105
      px      :     1.326554
      py      :     1.634480

 15 H s       :     0.960393  s :     0.960393

 16 H s       :     0.961467  s :     0.961467

 17 H s       :     0.960520  s :     0.960520

 18 H s       :     0.964953  s :     0.964953

 19 H s       :     0.961261  s :     0.961261

 20 H s       :     0.960073  s :     0.960073

 21 H s       :     0.961233  s :     0.961233

 22 H s       :     0.958940  s :     0.958940

 23 H s       :     0.955622  s :     0.955622

 24 H s       :     0.952720  s :     0.952720

 25 H s       :     0.952602  s :     0.952602

 26 H s       :     0.951933  s :     0.951933

 27 H s       :     0.952975  s :     0.952975

 28 H s       :     0.944684  s :     0.944684

 29 H s       :     0.955754  s :     0.955754

 30 H s       :     0.954708  s :     0.954708

 31 H s       :     0.953782  s :     0.953782

 32 H s       :     0.814608  s :     0.814608



                      *****************************
                      * MAYER POPULATION ANALYSIS *
                      *****************************

  NA   - Mulliken gross atomic population
  ZA   - Total nuclear charge
  QA   - Mulliken gross atomic charge
  VA   - Mayer's total valence
  BVA  - Mayer's bonded valence
  FA   - Mayer's free valence

  ATOM       NA         ZA         QA         VA         BVA        FA
  0 C      6.2256     6.0000    -0.2256     3.9599     3.9599     0.0000
  1 C      6.0426     6.0000    -0.0426     3.9622     3.9622     0.0000
  2 C      6.2242     6.0000    -0.2242     3.9598     3.9598     0.0000
  3 C      6.1418     6.0000    -0.1418     3.9598     3.9598     0.0000
  4 C      5.9999     6.0000     0.0001     3.9760     3.9760    -0.0000
  5 C      6.0901     6.0000    -0.0901     3.9723     3.9723     0.0000
  6 C      6.0870     6.0000    -0.0870     3.9711     3.9711     0.0000
  7 C      6.0200     6.0000    -0.0200     3.9740     3.9740     0.0000
  8 C      6.0951     6.0000    -0.0951     3.9715     3.9715     0.0000
  9 C      6.0886     6.0000    -0.0886     3.9715     3.9715    -0.0000
 10 C      6.0893     6.0000    -0.0893     3.9619     3.9619    -0.0000
 11 C      6.2203     6.0000    -0.2203     3.9545     3.9545     0.0000
 12 C      5.7591     6.0000     0.2409     3.9148     3.9148    -0.0000
 13 O      8.2663     8.0000    -0.2663     2.2812     2.2812     0.0000
 14 O      8.2519     8.0000    -0.2519     2.2429     2.2429     0.0000
 15 H      0.9265     1.0000     0.0735     0.9946     0.9946     0.0000
 16 H      0.9276     1.0000     0.0724     0.9948     0.9948    -0.0000
 17 H      0.9265     1.0000     0.0735     0.9946     0.9946     0.0000
 18 H      0.9272     1.0000     0.0728     0.9947     0.9947    -0.0000
 19 H      0.9273     1.0000     0.0727     0.9947     0.9947     0.0000
 20 H      0.9261     1.0000     0.0739     0.9945     0.9945    -0.0000
 21 H      0.9273     1.0000     0.0727     0.9947     0.9947     0.0000
 22 H      0.9227     1.0000     0.0773     0.9940     0.9940    -0.0000
 23 H      0.9191     1.0000     0.0809     0.9935     0.9935    -0.0000
 24 H      0.9151     1.0000     0.0849     0.9928     0.9928    -0.0000
 25 H      0.9147     1.0000     0.0853     0.9927     0.9927     0.0000
 26 H      0.9141     1.0000     0.0859     0.9926     0.9926     0.0000
 27 H      0.9152     1.0000     0.0848     0.9928     0.9928     0.0000
 28 H      0.9051     1.0000     0.0949     0.9910     0.9910     0.0000
 29 H      0.9202     1.0000     0.0798     0.9936     0.9936     0.0000
 30 H      0.9188     1.0000     0.0812     0.9934     0.9934     0.0000
 31 H      0.9178     1.0000     0.0822     0.9932     0.9932     0.0000
 32 H      0.7469     1.0000     0.2531     0.9359     0.9359     0.0000

  Mayer bond orders larger than 0.100000
B(  0-C ,  1-C ) :   0.9956 B(  0-C , 15-H ) :   0.9778 B(  0-C , 16-H ) :   0.9779 
B(  0-C , 17-H ) :   0.9766 B(  1-C ,  2-C ) :   0.9943 B(  1-C ,  3-C ) :   0.9722 
B(  1-C , 18-H ) :   0.9577 B(  2-C , 19-H ) :   0.9776 B(  2-C , 20-H ) :   0.9773 
B(  2-C , 21-H ) :   0.9781 B(  3-C ,  4-C ) :   0.9968 B(  3-C , 22-H ) :   0.9661 
B(  3-C , 23-H ) :   0.9590 B(  4-C ,  5-C ) :   1.4028 B(  4-C ,  7-C ) :   0.1084 
B(  4-C ,  9-C ) :   1.4089 B(  5-C ,  6-C ) :   1.4444 B(  5-C ,  8-C ) :   0.1120 
B(  5-C , 24-H ) :   0.9609 B(  6-C ,  7-C ) :   1.3983 B(  6-C ,  9-C ) :   0.1105 
B(  6-C , 25-H ) :   0.9608 B(  7-C ,  8-C ) :   1.3988 B(  7-C , 10-C ) :   0.9850 
B(  8-C ,  9-C ) :   1.4366 B(  8-C , 26-H ) :   0.9604 B(  9-C , 27-H ) :   0.9611 
B( 10-C , 11-C ) :   0.9815 B( 10-C , 12-C ) :   0.8989 B( 10-C , 28-H ) :   0.9464 
B( 11-C , 29-H ) :   0.9761 B( 11-C , 30-H ) :   0.9765 B( 11-C , 31-H ) :   0.9739 
B( 12-C , 13-O ) :   1.0915 B( 12-C , 14-O ) :   1.8696 B( 13-O , 14-O ) :   0.2398 
B( 13-O , 32-H ) :   0.8772 

-------
TIMINGS
-------

Total SCF time: 0 days 0 hours 0 min 22 sec 

Total time                  ....      22.976 sec
Sum of individual times     ....      22.917 sec  ( 99.7%)

SCF preparation             ....       0.269 sec  (  1.2%)
Fock matrix formation       ....      22.540 sec  ( 98.1%)
  Startup                   ....       0.011 sec  (  0.0% of F)
  Split-RI-J                ....       2.116 sec  (  9.4% of F)
  Chain of spheres X        ....      13.346 sec  ( 59.2% of F)
  XC integration            ....       2.881 sec  ( 12.8% of F)
    Basis function eval.    ....       1.315 sec  ( 45.6% of XC)
    Density eval.           ....       0.479 sec  ( 16.6% of XC)
    XC-Functional eval.     ....       0.351 sec  ( 12.2% of XC)
    XC-Potential eval.      ....       0.361 sec  ( 12.5% of XC)
  CPCM terms                ....       4.118 sec  ( 18.3% of F)
Diagonalization             ....       0.000 sec  (  0.0%)
Density matrix formation    ....       0.026 sec  (  0.1%)
Total Energy calculation    ....       0.009 sec  (  0.0%)
Population analysis         ....       0.009 sec  (  0.0%)
Orbital Transformation      ....       0.006 sec  (  0.0%)
Orbital Orthonormalization  ....       0.000 sec  (  0.0%)
DIIS solution               ....       0.036 sec  (  0.2%)
SOSCF solution              ....       0.022 sec  (  0.1%)
Finished LeanSCF after  23.0 sec

Maximum memory used throughout the entire LEANSCF-calculation: 66.7 MB

-------------------------   --------------------
FINAL SINGLE POINT ENERGY      -648.055807534405
-------------------------   --------------------

------------------------------------------------------------------------------
                         ORCA SCF GRADIENT CALCULATION
------------------------------------------------------------------------------

Nuc. rep. gradient        (SHARK) ... done (  0.0 sec)
HCore & Overlap gradient  (SHARK) ... done (  0.1 sec)
Split-RIJ-J gradient      (SHARK) ... done (  0.6 sec)
COSX-gradient                     ... done ( 10.3 sec)
XC gradient                       ... done (  3.2 sec)
CPCM gradient                     ... done (  0.6 sec)

------------------
CARTESIAN GRADIENT
------------------

   1   C   :   -0.007077098   -0.011567380    0.010647226
   2   C   :    0.000004645   -0.006269437   -0.006928629
   3   C   :    0.017597821    0.001573481   -0.004648932
   4   C   :    0.009068997    0.014931370    0.002937849
   5   C   :    0.001294857   -0.000479045    0.003716017
   6   C   :   -0.005218983   -0.001693115   -0.005091133
   7   C   :    0.003722642   -0.000530279   -0.005868236
   8   C   :   -0.001250383   -0.005170263   -0.000512371
   9   C   :    0.002322284    0.001788790    0.006014506
  10   C   :   -0.005117589    0.000835764    0.004437963
  11   C   :    0.008683990    0.015301979   -0.025716221
  12   C   :   -0.007766268    0.022115544    0.005371456
  13   C   :    0.022336492    0.011613747   -0.013558002
  14   O   :   -0.032765745   -0.057142769    0.053022811
  15   O   :   -0.052240410    0.001213886    0.014646506
  16   H   :    0.003189241   -0.003766107   -0.001380532
  17   H   :    0.002108489    0.001522241    0.003915201
  18   H   :   -0.005407595    0.001523244    0.000648369
  19   H   :   -0.004632866    0.000142140   -0.005799969
  20   H   :    0.001216023    0.001555616    0.004224939
  21   H   :    0.001012952   -0.004607360   -0.000726829
  22   H   :    0.001496639    0.003634815   -0.003123167
  23   H   :    0.000052040   -0.001070163    0.003783021
  24   H   :    0.004396261    0.001530403   -0.007632854
  25   H   :    0.004388688   -0.002427987   -0.006571087
  26   H   :   -0.007030741   -0.001185793   -0.004457491
  27   H   :   -0.005308784    0.001833407    0.005830917
  28   H   :    0.006026957    0.001301394    0.005793819
  29   H   :   -0.000400103    0.000094600   -0.007276688
  30   H   :    0.003016756   -0.000537589    0.003093797
  31   H   :    0.002360789    0.001849251   -0.003617753
  32   H   :   -0.005466751   -0.002401105   -0.001074435
  33   H   :    0.045386752    0.014486718   -0.024100066

Difference to translation invariance:
           :    0.0000000001    0.0000000000   -0.0000000001

Difference to rotation invariance:
           :    0.0001941371    0.0004020655   -0.0004992625

Norm of the Cartesian gradient     ...    0.1315023660
RMS gradient                       ...    0.0132164851
MAX gradient                       ...    0.0571427687

-------
TIMINGS
-------

Total SCF gradient time     ....       15.084 sec

One electron gradient       ....       0.106 sec  (  0.7%)
RI-J Coulomb gradient       ....       0.637 sec  (  4.2%)
COSX gradient               ....      10.281 sec  ( 68.2%)
XC gradient                 ....       3.164 sec  ( 21.0%)
CPCM gradient               ....       0.585 sec  (  3.9%)
   A-Matrix (El+Nuc)        ....       0.225 sec  (  1.5%)
   Potential                ....       0.360 sec  (  2.4%)

Maximum memory used throughout the entire SCFGRAD-calculation: 22.8 MB
------------------------------------------------------------------------------
                         ORCA GEOMETRY RELAXATION STEP
------------------------------------------------------------------------------

Reading the OPT-File                    .... done
Getting information on internals        .... done
Copying old internal coords+grads       .... done
Making the new internal coordinates     .... (2022 redundants) done
Validating the new internal coordinates .... (2022 redundants) done
Calculating the B-matrix                .... done
Calculating the G,G- and P matrices     .... done
Transforming gradient to internals      .... done
Projecting the internal gradient        .... done
Number of atoms                         ....  33
Number of internal coordinates          .... 157
Current Energy                          ....  -648.055807534 Eh
Current gradient norm                   ....     0.131502366 Eh/bohr
Maximum allowed component of the step   ....  0.300
Current trust radius                    ....  0.300
Evaluating the initial hessian          ....  (Almloef) done
Projecting the Hessian                  .... done
Forming the augmented Hessian           .... done
[...]
      px      :     0.958203
      py      :     1.005927

 10 C s       :     3.200756  s :     3.200756
      pz      :     0.996350  p :     2.877394
      px      :     0.933753
      py      :     0.947290

 11 C s       :     3.198757  s :     3.198757
      pz      :     1.028938  p :     3.019246
      px      :     1.030385
      py      :     0.959923

 12 C s       :     3.144343  s :     3.144343
      pz      :     0.926415  p :     2.649307
      px      :     0.864784
      py      :     0.858108

 13 O s       :     3.861580  s :     3.861580
      pz      :     1.611483  p :     4.370688
      px      :     1.341719
      py      :     1.417486

 14 O s       :     3.889209  s :     3.889209
      pz      :     1.324407  p :     4.344564
      px      :     1.270535
      py      :     1.749623

 15 H s       :     0.927432  s :     0.927432

 16 H s       :     0.928488  s :     0.928488

 17 H s       :     0.926656  s :     0.926656

 18 H s       :     0.931232  s :     0.931232

 19 H s       :     0.927893  s :     0.927893

 20 H s       :     0.926818  s :     0.926818

 21 H s       :     0.927364  s :     0.927364

 22 H s       :     0.923479  s :     0.923479

 23 H s       :     0.921325  s :     0.921325

 24 H s       :     0.916232  s :     0.916232

 25 H s       :     0.914926  s :     0.914926

 26 H s       :     0.914658  s :     0.914658

 27 H s       :     0.916209  s :     0.916209

 28 H s       :     0.908238  s :     0.908238

 29 H s       :     0.919258  s :     0.919258

 30 H s       :     0.918338  s :     0.918338

 31 H s       :     0.916569  s :     0.916569

 32 H s       :     0.782222  s :     0.782222



                     *******************************
                     * LOEWDIN POPULATION ANALYSIS *
                     *******************************

----------------------
LOEWDIN ATOMIC CHARGES
----------------------
   0 C :   -0.125303
   1 C :    0.005014
   2 C :   -0.123672
   3 C :   -0.069434
   4 C :    0.008118
   5 C :   -0.054745
   6 C :   -0.053142
   7 C :   -0.017244
   8 C :   -0.053975
   9 C :   -0.053791
  10 C :   -0.040774
  11 C :   -0.117233
  12 C :    0.134346
  13 O :   -0.147177
  14 O :   -0.184177
  15 H :    0.039082
  16 H :    0.038076
  17 H :    0.039710
  18 H :    0.031890
  19 H :    0.038475
  20 H :    0.039556
  21 H :    0.039003
  22 H :    0.040480
  23 H :    0.042715
  24 H :    0.046717
  25 H :    0.047696
  26 H :    0.048018
  27 H :    0.046685
  28 H :    0.052511
  29 H :    0.045384
  30 H :    0.046138
  31 H :    0.047686
  32 H :    0.163365

-------------------------------
LOEWDIN REDUCED ORBITAL CHARGES
-------------------------------
  0 C s       :     3.021803  s :     3.021803
      pz      :     1.018923  p :     3.103500
      px      :     1.049238
      py      :     1.035339

  1 C s       :     3.046496  s :     3.046496
      pz      :     1.000911  p :     2.948490
      px      :     0.980477
      py      :     0.967102

  2 C s       :     3.022489  s :     3.022489
      pz      :     1.048520  p :     3.101183
      px      :     1.002534
      py      :     1.050129

  3 C s       :     3.037994  s :     3.037994
      pz      :     1.047886  p :     3.031440
      px      :     0.977558
      py      :     1.005995

  4 C s       :     3.044430  s :     3.044430
      pz      :     0.994529  p :     2.947452
      px      :     0.978406
      py      :     0.974517

  5 C s       :     3.032021  s :     3.032021
      pz      :     1.012602  p :     3.022724
      px      :     1.002200
      py      :     1.007922

  6 C s       :     3.034115  s :     3.034115
      pz      :     1.004891  p :     3.019027
      px      :     1.008747
      py      :     1.005389

  7 C s       :     3.044697  s :     3.044697
      pz      :     0.999578  p :     2.972547
      px      :     0.965273
      py      :     1.007696

  8 C s       :     3.032823  s :     3.032823
      pz      :     1.011539  p :     3.021152
      px      :     1.005500
      py      :     1.004113

  9 C s       :     3.032571  s :     3.032571
      pz      :     1.007567  p :     3.021220
      px      :     1.005234
      py      :     1.008419

 10 C s       :     3.062520  s :     3.062520
      pz      :     1.022326  p :     2.978254
      px      :     0.972183
      py      :     0.983745

 11 C s       :     3.021421  s :     3.021421
      pz      :     1.050104  p :     3.095812
      px      :     1.051187
      py      :     0.994520

 12 C s       :     3.104134  s :     3.104134
      pz      :     0.951346  p :     2.761520
      px      :     0.912764
      py      :     0.897411

 13 O s       :     3.739514  s :     3.739514
      pz      :     1.615542  p :     4.407663
      px      :     1.354206
      py      :     1.437916

 14 O s       :     3.783618  s :     3.783618
      pz      :     1.341732  p :     4.400558
      px      :     1.303896
      py      :     1.754931

 15 H s       :     0.960918  s :     0.960918

 16 H s       :     0.961924  s :     0.961924

 17 H s       :     0.960290  s :     0.960290

 18 H s       :     0.968110  s :     0.968110

 19 H s       :     0.961525  s :     0.961525

 20 H s       :     0.960444  s :     0.960444

 21 H s       :     0.960997  s :     0.960997

 22 H s       :     0.959520  s :     0.959520

 23 H s       :     0.957285  s :     0.957285

 24 H s       :     0.953283  s :     0.953283

 25 H s       :     0.952304  s :     0.952304

 26 H s       :     0.951982  s :     0.951982

 27 H s       :     0.953315  s :     0.953315

 28 H s       :     0.947489  s :     0.947489

 29 H s       :     0.954616  s :     0.954616

 30 H s       :     0.953862  s :     0.953862

 31 H s       :     0.952314  s :     0.952314

 32 H s       :     0.836635  s :     0.836635



                      *****************************
                      * MAYER POPULATION ANALYSIS *
                      *****************************

  NA   - Mulliken gross atomic population
  ZA   - Total nuclear charge
  QA   - Mulliken gross atomic charge
  VA   - Mayer's total valence
  BVA  - Mayer's bonded valence
  FA   - Mayer's free valence

  ATOM       NA         ZA         QA         VA         BVA        FA
  0 C      6.2223     6.0000    -0.2223     3.9574     3.9574     0.0000
  1 C      6.0389     6.0000    -0.0389     3.9532     3.9532     0.0000
  2 C      6.2211     6.0000    -0.2211     3.9570     3.9570    -0.0000
  3 C      6.1382     6.0000    -0.1382     3.9539     3.9539    -0.0000
  4 C      6.0001     6.0000    -0.0001     3.9689     3.9689     0.0000
  5 C      6.0884     6.0000    -0.0884     3.9688     3.9688     0.0000
  6 C      6.0875     6.0000    -0.0875     3.9679     3.9679     0.0000
  7 C      6.0241     6.0000    -0.0241     3.9681     3.9681     0.0000
  8 C      6.0887     6.0000    -0.0887     3.9686     3.9686    -0.0000
  9 C      6.0874     6.0000    -0.0874     3.9684     3.9684     0.0000
 10 C      6.0781     6.0000    -0.0781     3.9497     3.9497     0.0000
 11 C      6.2180     6.0000    -0.2180     3.9521     3.9521    -0.0000
 12 C      5.7937     6.0000     0.2063     3.8957     3.8957     0.0000
 13 O      8.2323     8.0000    -0.2323     2.2761     2.2761    -0.0000
 14 O      8.2338     8.0000    -0.2338     2.2518     2.2518     0.0000
 15 H      0.9274     1.0000     0.0726     0.9947     0.9947    -0.0000
 16 H      0.9285     1.0000     0.0715     0.9949     0.9949    -0.0000
 17 H      0.9267     1.0000     0.0733     0.9946     0.9946    -0.0000
 18 H      0.9312     1.0000     0.0688     0.9953     0.9953    -0.0000
 19 H      0.9279     1.0000     0.0721     0.9948     0.9948    -0.0000
 20 H      0.9268     1.0000     0.0732     0.9946     0.9946    -0.0000
 21 H      0.9274     1.0000     0.0726     0.9947     0.9947    -0.0000
 22 H      0.9235     1.0000     0.0765     0.9941     0.9941    -0.0000
 23 H      0.9213     1.0000     0.0787     0.9938     0.9938    -0.0000
 24 H      0.9162     1.0000     0.0838     0.9930     0.9930    -0.0000
 25 H      0.9149     1.0000     0.0851     0.9928     0.9928     0.0000
 26 H      0.9147     1.0000     0.0853     0.9927     0.9927     0.0000
 27 H      0.9162     1.0000     0.0838     0.9930     0.9930     0.0000
 28 H      0.9082     1.0000     0.0918     0.9916     0.9916     0.0000
 29 H      0.9193     1.0000     0.0807     0.9935     0.9935     0.0000
 30 H      0.9183     1.0000     0.0817     0.9933     0.9933     0.0000
 31 H      0.9166     1.0000     0.0834     0.9930     0.9930    -0.0000
 32 H      0.7822     1.0000     0.2178     0.9526     0.9526     0.0000

  Mayer bond orders larger than 0.100000
B(  0-C ,  1-C ) :   0.9922 B(  0-C , 15-H ) :   0.9779 B(  0-C , 16-H ) :   0.9783 
B(  0-C , 17-H ) :   0.9764 B(  1-C ,  2-C ) :   0.9897 B(  1-C ,  3-C ) :   0.9644 
B(  1-C , 18-H ) :   0.9602 B(  2-C , 19-H ) :   0.9783 B(  2-C , 20-H ) :   0.9776 
B(  2-C , 21-H ) :   0.9779 B(  3-C ,  4-C ) :   0.9921 B(  3-C , 22-H ) :   0.9670 
B(  3-C , 23-H ) :   0.9625 B(  4-C ,  5-C ) :   1.4037 B(  4-C ,  7-C ) :   0.1097 
B(  4-C ,  9-C ) :   1.3995 B(  5-C ,  6-C ) :   1.4394 B(  5-C ,  8-C ) :   0.1115 
B(  5-C , 24-H ) :   0.9606 B(  6-C ,  7-C ) :   1.3949 B(  6-C ,  9-C ) :   0.1079 
B(  6-C , 25-H ) :   0.9598 B(  7-C ,  8-C ) :   1.3898 B(  7-C , 10-C ) :   0.9797 
B(  8-C ,  9-C ) :   1.4447 B(  8-C , 26-H ) :   0.9598 B(  9-C , 27-H ) :   0.9605 
B( 10-C , 11-C ) :   0.9821 B( 10-C , 12-C ) :   0.8766 B( 10-C , 28-H ) :   0.9490 
B( 11-C , 29-H ) :   0.9765 B( 11-C , 30-H ) :   0.9766 B( 11-C , 31-H ) :   0.9737 
B( 12-C , 13-O ) :   1.0670 B( 12-C , 14-O ) :   1.8993 B( 13-O , 14-O ) :   0.2269 
B( 13-O , 32-H ) :   0.9003 

-------
TIMINGS
-------

Total SCF time: 0 days 0 hours 0 min 11 sec 

Total time                  ....      11.732 sec
Sum of individual times     ....      11.684 sec  ( 99.6%)

SCF preparation             ....       0.379 sec  (  3.2%)
Fock matrix formation       ....      11.247 sec  ( 95.9%)
  Startup                   ....       0.005 sec  (  0.0% of F)
  Split-RI-J                ....       0.695 sec  (  6.2% of F)
  Chain of spheres X        ....       8.212 sec  ( 73.0% of F)
  XC integration            ....       0.958 sec  (  8.5% of F)
    Basis function eval.    ....       0.425 sec  ( 44.4% of XC)
    Density eval.           ....       0.157 sec  ( 16.4% of XC)
    XC-Functional eval.     ....       0.122 sec  ( 12.7% of XC)
    XC-Potential eval.      ....       0.138 sec  ( 14.4% of XC)
  CPCM terms                ....       1.355 sec  ( 12.0% of F)
Diagonalization             ....       0.000 sec  (  0.0%)
Density matrix formation    ....       0.007 sec  (  0.1%)
Total Energy calculation    ....       0.005 sec  (  0.0%)
Population analysis         ....       0.029 sec  (  0.2%)
Orbital Transformation      ....       0.003 sec  (  0.0%)
Orbital Orthonormalization  ....       0.000 sec  (  0.0%)
DIIS solution               ....       0.003 sec  (  0.0%)
SOSCF solution              ....       0.011 sec  (  0.1%)
Finished LeanSCF after  11.8 sec

Maximum memory used throughout the entire LEANSCF-calculation: 69.4 MB

-------------------------   --------------------
FINAL SINGLE POINT ENERGY      -648.077084737348
-------------------------   --------------------

                                *** OPTIMIZATION RUN DONE ***


------------------------------------------------------------------------------
                              ORCA PROPERTY CALCULATIONS
------------------------------------------------------------------------------

GBWName                                 ... Ibuprofen\Ibuprofen_B3LYP_STO-3G\Ibuprofen_B3LYP_STO-3G.orcainp.gbw
Number of atoms                         ...     33
Number of basis functions               ...     93
Max core memory                         ...   1024 MB

Electric properties:
Dipole moment                           ... YES
Quadrupole moment                       ...  NO
Static polarizability (Dipole/Dipole)   ...  NO
Static polarizability (Dipole/Quad.)    ...  NO
Static polarizability (Quad./Quad.)     ...  NO
Static polarizability (Velocity)        ...  NO

Atomic electric properties:
Dipole moment                           ...  NO
Quadrupole moment                       ...  NO
Static polarizability                   ...  NO

Choice of electric origin               ... Center of mass
Position of electric origin             ...    11.511918    -2.004665    -0.934534

General magnetic properties:
Magnetizability                         ...  NO

EPR properties:
g-Tensor (aka g-matrix)                 ...  NO
Zero-Field splitting spin-orbit         ...  NO
Zero-field splitting spin-spin          ...  NO
Hyperfine couplings                     ...  NO (   0 nuclei)
Quadrupole couplings                    ...  NO (   0 nuclei)
Contact density                         ...  NO (   0 nuclei)

NMR properties:
Chemical shifts                         ...  NO (   0 nuclei)
Spin-rotation constants                 ...  NO (   0 nuclei)
Spin-spin couplings                     ...  NO (   0 nuclei,    0 pairs)

Choice of magnetic origin               ... GIAO
Position of magnetic origin             ...     0.000000     0.000000     0.000000

Properties with geometric perturbations:
SCF Hessian                             ...  NO
IR spectrum                             ...  NO
VCD spectrum                            ...  NO
X-ray spectroscopy properties:
SCF XES/XAS/RIXS spectra                ...  NO


-------------
DIPOLE MOMENT
-------------

Method             : SCF
Type of density    : Electron Density
Multiplicity       :   1
Irrep              :   0
Energy             :  -648.0770847373482866 Eh
Relativity type    : 
Basis              : AO
                                X                 Y                 Z
Electronic contribution:     19.957844852      -0.941913347      -3.360457236
Nuclear contribution   :    -21.212591747       0.676415723       4.279740730
                        -----------------------------------------
Total Dipole Moment    :     -1.254746895      -0.265497624       0.919283494
                        -----------------------------------------
Magnitude (a.u.)       :      1.577960995
Magnitude (Debye)      :      4.010858100



--------------------
Rotational spectrum 
--------------------
 
Rotational constants in cm-1:             0.046362             0.008343             0.007816 
Rotational constants in MHz :          1389.908875           250.122311           234.328709 

Dipole components along the rotational axes: 
x,y,z [a.u.] :     1.343023     0.733263    -0.385452 
x,y,z [Debye]:     3.413694     1.863808    -0.979742 

 

Dipole moment calculation done in   0.0 sec 

Maximum memory used throughout the entire PROP-calculation: 8.7 MB

--------------------------------
SUGGESTED CITATIONS FOR THIS RUN
--------------------------------

Below you find a list of papers that are relevant to this ORCA run
We neither can nor want to force you to cite these papers, but we appreciate if you do
You receive ORCA, which is the product of decades of hard work by many enthusiastic individuals, for free
The only thing we kindly ask in return is that you cite our papers,
We deeply appreciate it, if you show your appreciation for ORCA by not just citing the generic ORCA reference.

Please note that relegating all ORCA citations to the supporting information does *not* help us.
SI sections are not indexed - citations you put there will not count into any citation statistics
But we need these citations in order to attract the funding resources that allow us to do what we are doing

Therefore, if you are a happy ORCA user, please consider citing a few of the papers listed below in the main body of your paper

In addition to the list printed below, the program has created the file Ibuprofen\Ibuprofen_B3LYP_STO-3G\Ibuprofen_B3LYP_STO-3G.orcainp.bibtex that contains the list in bibtex format
You can import this file easily into all common literature databanks and citation aid programs


List of essential papers. We consider these as the minimum necessary citations

  1. Neese,F.
     Software update: the ORCA program system, version 5.0
     WIRES Comput. Molec. Sci., 2022 12(1)e1606
     doi.org/10.1002/wcms.1606

List of papers to cite with high priority. The work reported in these papers was absolutely
necessary for this run to complete.
Our perspective: the developers of density functionals and basis sets usually get cited in chemistry papers
Good! But without the algorithms to do something with them, the functionals or basis sets would not do anything.
Hence, in our opinion, the algorithm design and method developments papers are equally worthy of getting cited

  1. Neese,F.
     An improvement of the resolution of the identity approximation for the formation of the Coulomb matrix
     J. Comp. Chem., 2003 24(14)1740-1747
     doi.org/10.1002/jcc.10318
  2. Neese,F.; Wennmohs,F.; Hansen,A.; Becker,U.
     Efficient, approximate and parallel Hartree-Fock and hybrid DFT calculations. A 'chain-of-spheres' algorithm for the Hartree-Fock exchange
     Chem. Phys., 2009 356(1-3)98-109
     doi.org/10.1016/j.chemphys.2008.10.036
  3. Garcia-Rates,M.; Neese,F.
     Effect of the Solute Cavity on the Solvation Energy and its Derivatives within the Framework of the Gaussian Charge Scheme
     J. Comput. Chem., 2020 41 922-939
     doi.org/10.1002/jcc.26139
  4. Helmich-Paris,B.; de Souza,B.; Neese,F.; Izsák,R.
     An improved chain of spheres for exchange algorithm
     J. Chem. Phys., 2021 155 104109
     doi.org/doi: 10.1063/5.0058766.
  5. Neese,F.
     The SHARK Integral Generation and Digestion System
     J. Comp. Chem., 2022  1-16
     doi.org/10.1002/jcc.26942

List of suggested additional citations. These are papers that are important in the 'surrounding' of 
of this run, or papers that preceded the highly important papers. If you like your results we are grateful for a citation.

  1. Izsak,R.; Neese,F.
     An overlap fitted chain of spheres exchange method
     J. Chem. Phys., 2011 135 144105
     doi.org/10.1063/1.3646921
  2. Izsak,R.; Hansen,A.; Neese,F.
     The resolution of identity and chain of spheres approximations for the LPNO-CCSD singles Fock term
     Molec. Phys., 2012 110 2413-2417
     doi.org/10.1080/00268976.2012.687466
  3. Neese,F.
     The ORCA program system
     WIRES Comput. Molec. Sci., 2012 2(1)73-78
     doi.org/10.1002/wcms.81
  4. Izsak,R.; Neese,F.; Klopper,W.
     Robust fitting techniques in the chain of spheres approximation to the Fock exchange: The role of the complementary space
     J. Chem. Phys., 2013 139 
     doi.org/10.1063/1.4819264
  5. Neese,F.
     Software update: the ORCA program system, version 4.0
     WIRES Comput. Molec. Sci., 2018 8(1)1-6
     doi.org/10.1002/wcms.1327
  6. Neese,F.; Wennmohs,F.; Becker,U.; Riplinger,C.
     The ORCA quantum chemistry program package
     J. Chem. Phys., 2020 152 Art. No. L224108
     doi.org/10.1063/5.0004608

List of optional additional citations

  1. Neese,F.
     Approximate second-order SCF convergence for spin unrestricted wavefunctions
     Chem. Phys. Lett., 2000 325(1-3)93-98
     doi.org/10.1016/s0009-2614(00)00662-x

Timings for individual modules:

Sum of individual times          ...      503.120 sec (=   8.385 min)
Startup calculation              ...       22.326 sec (=   0.372 min)   4.4 %
SCF iterations                   ...      272.684 sec (=   4.545 min)  54.2 %
Property calculations            ...        0.138 sec (=   0.002 min)   0.0 %
SCF Gradient evaluation          ...      207.796 sec (=   3.463 min)  41.3 %
Geometry relaxation              ...        0.176 sec (=   0.003 min)   0.0 %
                             ****ORCA TERMINATED NORMALLY****
TOTAL RUN TIME: 0 days 0 hours 8 minutes 24 seconds 567 msec
